                  Welcome to Q-Chem
     A Quantum Leap Into The Future Of Chemistry


 Q-Chem 5.3 (devel), Q-Chem, Inc., Pleasanton, CA (2020)

 Yihan Shao,  Zhengting Gan,  E. Epifanovsky,  A. T. B. Gilbert,  M. Wormit,  
 J. Kussmann,  A. W. Lange,  A. Behn,  Jia Deng,  Xintian Feng,  D. Ghosh,  
 M. Goldey,  P. R. Horn,  L. D. Jacobson,  I. Kaliman,  T. Kus,  A. Landau,  
 Jie Liu,  E. I. Proynov,  R. M. Richard,  R. P. Steele,  E. J. Sundstrom,  
 H. L. Woodcock III,  P. M. Zimmerman,  D. Zuev,  B. Alam,  B. Albrecht,  
 A. Aldossary,  E. Alguire,  S. A. Baeppler,  D. Barton,  Z. Benda,  
 Y. A. Bernard,  E. J. Berquist,  K. B. Bravaya,  H. Burton,  K. Carter-Fenk,  
 D. Casanova,  Chun-Min Chang,  Yunqing Chen,  A. Chien,  K. D. Closser,  
 M. P. Coons,  S. Coriani,  S. Dasgupta,  A. L. Dempwolff,  M. Diedenhofen,  
 Hainam Do,  R. G. Edgar,  Po-Tung Fang,  S. Faraji,  S. Fatehi,  
 Qingguo Feng,  J. Fosso-Tande,  J. Gayvert,  Qinghui Ge,  A. Ghysels,  
 G. Gidofalvi,  J. Gomes,  J. Gonthier,  S. Gulania,  A. Gunina,  D. Hait,  
 M. W. D. Hanson-Heine,  S. Hammes-Schiffer,  P. H. P. Harbach,  
 A. W. Hauser,  M. F. Herbst,  J. E. Herr,  E. G. Hohenstein,  Z. C. Holden,  
 S. Houck,  Kerwin Hui,  B. C. Huynh,  M. Ivanov,  T.-C. Jagau,  Hyunjun Ji,  
 B. Kaduk,  K. Khistyaev,  Jaehoon Kim,  P. Klunzinger,  K. Koh,  
 D. Kosenkov,  L. Koulias,  T. Kowalczyk,  C. M. Krauter,  A. Kunitsa,  
 Ka Un Lao,  A. Laurent,  K. V. Lawler,  Joonho Lee,  D. Lefrancois,  
 S. Lehtola,  D. S. Levine,  Yi-Pei Li,  You-Sheng Lin,  Fenglai Liu,  
 Kuan-Yu Liu,  E. Livshits,  M. Loipersberger,  A. Luenser,  P. Manohar,  
 E. Mansoor,  S. F. Manzer,  Shan-Ping Mao,  Yuezhi Mao,  N. Mardirossian,  
 A. V. Marenich,  T. Markovich,  L. A. Martinez-Martinez,  S. A. Maurer,  
 N. J. Mayhall,  S. C. McKenzie,  J.-M. Mewes,  P. Morgante,  A. F. Morrison,  
 J. W. Mullinax,  K. Nanda,  T. S. Nguyen-Beck,  R. Olivares-Amaya,  
 K. J. Oosterbaan,  J. A. Parkhill,  S. K. Paul,  F. Pavosevic,  Zheng Pei,  
 T. M. Perrine,  F. Plasser,  P. Pokhilko,  S. Prager,  A. Prociuk,  
 E. Ramos,  B. Rana,  D. R. Rehn,  F. Rob,  E. Rossomme,  M. Scheurer,  
 M. Schneider,  N. Sergueev,  S. M. Sharada,  S. Sharma,  W. Skomorowski,  
 D. W. Small,  T. Stauch,  C. J. Stein,  T. Stein,  Yu-Chuan Su,  
 S. P. Veccham,  Zhen Tao,  A. J. W. Thom,  A. Tkatchenko,  T. Tsuchimochi,  
 N. M. Tubman,  L. Vogt,  M. L. Vidal,  O. Vydrov,  M. A. Watson,  J. Wenzel,  
 M. de Wergifosse,  T. A. Wesolowski,  A. White,  J. Witte,  A. Yamada,  
 Jun Yang,  K. Yao,  S. Yeganeh,  S. R. Yost,  Zhi-Qiang You,  A. Zech,  
 Igor Ying Zhang,  Xing Zhang,  Yan Zhao,  Ying Zhu,  B. R. Brooks,  
 G. K. L. Chan,  C. J. Cramer,  M. S. Gordon,  W. J. Hehre,  A. Klamt,  
 M. W. Schmidt,  C. D. Sherrill,  D. G. Truhlar,  A. Aspuru-Guzik,  R. Baer,  
 A. T. Bell,  N. A. Besley,  Jeng-Da Chai,  A. E. DePrince, III,  
 R. A. DiStasio Jr.,  A. Dreuw,  B. D. Dunietz,  T. R. Furlani,  
 Chao-Ping Hsu,  Yousung Jung,  Jing Kong,  D. S. Lambrecht,  WanZhen Liang,  
 C. Ochsenfeld,  V. A. Rassolov,  L. V. Slipchenko,  J. E. Subotnik,  
 T. Van Voorhis,  J. M. Herbert,  A. I. Krylov,  P. M. W. Gill,  M. Head-Gordon

 Contributors to earlier versions of Q-Chem not listed above: 
 R. D. Adamson,  B. Austin,  J. Baker,  G. J. O. Beran,  K. Brandhorst,  
 S. T. Brown,  E. F. C. Byrd,  A. K. Chakraborty,  C.-L. Cheng,  
 Siu Hung Chien,  D. M. Chipman,  D. L. Crittenden,  H. Dachsel,  
 R. J. Doerksen,  A. D. Dutoi,  L. Fusti-Molnar,  W. A. Goddard III,  
 A. Golubeva-Zadorozhnaya,  S. R. Gwaltney,  G. Hawkins,  A. Heyden,  
 S. Hirata,  G. Kedziora,  F. J. Keil,  C. Kelley,  Jihan Kim,  R. A. King,  
 R. Z. Khaliullin,  P. P. Korambath,  W. Kurlancheek,  A. M. Lee,  M. S. Lee,  
 S. V. Levchenko,  Ching Yeh Lin,  D. Liotard,  R. C. Lochan,  I. Lotan,  
 P. E. Maslen,  N. Nair,  D. P. O'Neill,  D. Neuhauser,  E. Neuscamman,  
 C. M. Oana,  R. Olson,  B. Peters,  R. Peverati,  P. A. Pieniazek,  
 Y. M. Rhee,  J. Ritchie,  M. A. Rohrdanz,  E. Rosta,  N. J. Russ,  
 H. F. Schaefer III,  N. E. Schultz,  N. Shenvi,  A. C. Simmonett,  A. Sodt,  
 D. Stuck,  K. S. Thanthiriwatte,  V. Vanovschi,  Tao Wang,  A. Warshel,  
 C. F. Williams,  Q. Wu,  X. Xu,  W. Zhang

 Please cite Q-Chem as follows:
 Y. Shao et al., Mol. Phys. 113, 184-215 (2015)
 DOI: 10.1080/00268976.2014.952696

 Q-Chem 5.3.1 for Intel X86 EM64T Linux

 Parts of Q-Chem use Armadillo 9.800.1 (Horizon Scraper).
 http://arma.sourceforge.net/

 Q-Chem begins on Fri Feb 12 10:19:32 2021  

Host: c09b01
0

     Scratch files written to /tmp/zl21a/DSSC9//
Processing $rem in /home/zl53a/Q-Chem_5.3/development/config/preferences:
Processing $rem in /home/zl21a/.qchemrc:

Checking the input file for inconsistencies... 	...done.

--------------------------------------------------------------
User input:
--------------------------------------------------------------
$molecule
0 1
C         -8.72530       -3.99110       -5.87190
C         -8.20820       -2.57540       -6.07570
C         -7.04830       -2.20580       -5.14710
C         -7.45440       -2.13090       -3.67300
C         -6.29350       -1.76920       -2.74080
C         -5.76350       -0.34780       -2.95050
C         -4.73320        0.02960       -1.91830
C         -3.31800       -0.13320       -2.11300
C         -2.55740        0.26880       -1.02910
C         -1.11900        0.24680       -0.87510
N         -0.51370        0.65880        0.22040
C          0.85600        0.52810        0.09640
C          1.29600        0.00520       -1.11680
C          2.65460       -0.17940       -1.37180
C          3.60850        0.16080       -0.40420
N          4.97830        0.02870       -0.52750
C          5.58330        0.44450        0.56660
C          7.02160        0.42380        0.71930
C          7.78070        0.78840        1.81600
C          9.19940        0.63050        1.62220
C         10.20590        0.93960        2.70180
C         10.89770       -0.29810        3.28390
C          9.93220       -1.23130        4.02150
C         10.63340       -2.41080        4.70330
C         11.40650       -3.34970        3.77320
C         10.54600       -3.97830        2.68830
C          9.46810        0.15940        0.34500
C         10.74280       -0.13000       -0.25980
C         11.18890       -1.35700       -0.70650
C         12.50250       -1.28930       -1.25650
C         13.01750       -0.00670       -1.25230
C         14.29980        0.42490       -1.69500
C         14.49470        1.27240       -2.72460
C         15.90460        1.60070       -3.05780
O         16.08460        2.48060       -4.06760
O         16.85960        1.11540       -2.46700
C         13.44720        1.82670       -3.50190
N         12.67490        2.33480       -4.20250
S         11.91030        1.09020       -0.52510
S          8.03570       -0.10970       -0.55400
S          4.52920        1.01260        1.80350
C          3.16850        0.68430        0.80870
C          1.81000        0.86870        1.06380
S         -0.06470       -0.32200       -2.11180
S         -3.57030        0.84620        0.22910
C         -4.99860        0.56020       -0.66610
C         -6.28660        0.89000       -0.05580
C         -6.83040        0.07540        0.94280
C         -8.07220        0.38250        1.50860
C         -7.00090        2.01470       -0.48080
C         -8.24320        2.31980        0.08490
C         -8.80040        1.50890        1.08870
N        -10.08340        1.82360        1.67040
C        -11.16030        2.29270        0.83040
C        -12.01160        3.32810        1.25530
C        -13.05260        3.78300        0.44150
C        -13.26080        3.20960       -0.81060
C        -12.42960        2.18230       -1.25060
C        -11.38790        1.72810       -0.43740
C        -10.28930        1.67050        3.09160
C        -11.49380        1.14940        3.59690
C        -11.69240        0.99980        4.97210
C        -10.69040        1.36940        5.86590
C         -9.49000        1.88820        5.38690
C         -9.29090        2.03710        4.01180
H         -9.47800       -4.22810       -6.63070
H         -7.91520       -4.72200       -5.95900
H         -9.19630       -4.11030       -4.89200
H         -7.86530       -2.47830       -7.11280
H         -9.03160       -1.86330       -5.94670
H         -6.23310       -2.92880       -5.27120
H         -6.66210       -1.23300       -5.47120
H         -8.26600       -1.40400       -3.54770
H         -7.84670       -3.10210       -3.35120
H         -5.47870       -2.49350       -2.86680
H         -6.64420       -1.87930       -1.70680
H         -5.30890       -0.25960       -3.94440
H         -6.59270        0.36880       -2.92870
H         -2.89320       -0.53680       -3.02500
H          2.99030       -0.58780       -2.32100
H          7.35230        1.14960        2.74410
H         10.96450        1.62280        2.30360
H          9.71330        1.48910        3.51450
H         11.67150        0.03880        3.98490
H         11.41240       -0.84410        2.48710
H          9.16590       -1.60890        3.33600
H          9.40120       -0.65870        4.79240
H          9.87830       -2.99390        5.24540
H         11.32590       -2.02440        5.46140
H         11.84300       -4.15200        4.38050
H         12.24830       -2.82190        3.31180
H          9.68350       -4.49490        3.12100
H         10.18170       -3.22860        1.98000
H         11.13090       -4.71060        2.12240
H         10.60490       -2.26710       -0.63280
H         13.03690       -2.14740       -1.64820
H         15.15280       -0.00410       -1.17000
H         15.30390        2.85890       -4.51940
H          1.47390        1.27770        2.01270
H         -6.29510       -0.80820        1.28320
H         -8.47820       -0.27830        2.27120
H         -6.59260        2.66560       -1.25060
H         -8.76750        3.21140       -0.25140
H        -11.85570        3.80150        2.22190
H        -13.69670        4.58740        0.78660
H        -14.07090        3.56330       -1.44300
H        -12.59220        1.72970       -2.22520
H        -10.76230        0.91280       -0.79270
H        -12.28260        0.83780        2.91620
H        -12.62900        0.59090        5.34200
H        -10.84480        1.25330        6.93550
H         -8.70710        2.18150        6.08150
H         -8.35270        2.46090        3.66110
$end

$rem
jobtype opt
method PBE0
basis 6-31g*
$end
--------------------------------------------------------------
 ----------------------------------------------------------------
             Standard Nuclear Orientation (Angstroms)
    I     Atom           X                Y                Z
 ----------------------------------------------------------------
    1      C      -9.3938253932    -6.6390671571     3.7827249516
    2      C      -8.9254843256    -6.6202539491     2.3358538283
    3      C      -7.8026077609    -5.6146966721     2.0670176089
    4      C      -8.2460762389    -4.1576980858     2.2219009799
    5      C      -7.1219898184    -3.1496977693     1.9613676400
    6      C      -6.6408352554    -3.1355194560     0.5075652766
    7      C      -5.6501805324    -2.0301191517     0.2505067676
    8      C      -4.2256521863    -2.2053647359     0.3354240577
    9      C      -3.5065804175    -1.0530648670     0.0706668606
   10      C      -2.0724241589    -0.8623473598     0.0665173836
   11      N      -1.5091495351     0.2983838973    -0.2012081979
   12      C      -0.1329567360     0.1964017918    -0.1361727482
   13      C       0.3549890395    -1.0665909755     0.1888454668
   14      C       1.7252206129    -1.3062731509     0.2884145888
   15      C       2.6424774776    -0.2723693041     0.0612721451
   16      N       4.0188060714    -0.3738593566     0.1277906470
   17      C       4.5816717083     0.7860299989    -0.1438863812
   18      C       6.0157101515     0.9756475466    -0.1495076629
   19      C       6.7343821817     2.1351365372    -0.3753674726
   20      C       8.1622020066     1.9615932572    -0.2952811585
   21      C       9.1305169989     3.1032733945    -0.4770880884
   22      C       9.8542394527     3.5193904649     0.8083695475
   23      C       8.9071884404     4.0855422255     1.8712302224
   24      C       9.6357548752     4.6089785808     3.1133889329
   25      C      10.4653569602     3.5752445125     3.8798464247
   26      C       9.6550038722     2.3861871778     4.3718593796
   27      C       8.4785919965     0.6378661503    -0.0250615059
   28      C       9.7772316595     0.0346007817     0.1298623818
   29      C      10.2794939711    -0.5723139020     1.2627623054
   30      C      11.6023058643    -1.0684431268     1.0713132582
   31      C      12.0686067682    -0.8632921786    -0.2135143393
   32      C      13.3439599483    -1.2014068593    -0.7480308207
   33      C      13.5313082699    -2.0910687773    -1.7428778935
   34      C      14.9354122278    -2.3321863379    -2.1635624993
   35      O      15.1061907719    -3.1979959940    -3.1870508373
   36      O      15.8936571885    -1.7906812995    -1.6295918834
   37      C      12.4824902218    -2.8096851045    -2.3691935536
   38      N      11.7085144781    -3.4511891009    -2.9478881455
   39      S      10.9041212960    -0.0169633595    -1.1545788456
   40      S       7.0790134138    -0.3317164778     0.1578999331
   41      S       3.4779737379     2.0612580067    -0.4894733433
   42      C       2.1545163194     0.9904138229    -0.2643831055
   43      C       0.7843897751     1.2301687708    -0.3637432465
   44      S      -0.9685048815    -2.1374733517     0.4128189196
   45      S      -4.5699728228     0.2457698006    -0.2823905122
   46      C      -5.9649118815    -0.7223881961    -0.0823029166
   47      C      -7.2784837252    -0.1082061349    -0.2759199018
   48      C      -7.8148869090     0.7454790081     0.6936092938
   49      C      -9.0803977193     1.3136934063     0.5143829660
   50      C      -8.0241727750    -0.3859988946    -1.4259540767
   51      C      -9.2901057294     0.1818119483    -1.6032007740
   52      C      -9.8401577773     1.0407891381    -0.6361195871
   53      N     -11.1474900743     1.6246396122    -0.8191520142
   54      C     -12.2209975134     0.8308007017    -1.3693973980
   55      C     -13.1203595846     1.3766346851    -2.3024129324
   56      C     -14.1580912926     0.6076854337    -2.8360002269
   57      C     -14.3148911385    -0.7198552374    -2.4449263400
   58      C     -13.4355548796    -1.2800291295    -1.5214483033
   59      C     -12.3971358784    -0.5115514601    -0.9886642762
   60      C     -11.3811520158     3.0020289101    -0.4533041238
   61      C     -12.5769105402     3.3913187798     0.1762262557
   62      C     -12.8023199652     4.7239333120     0.5316503120
   63      C     -11.8363625980     5.6905064570     0.2630440571
   64      C     -10.6452375291     5.3267748332    -0.3602335505
   65      C     -10.4193047208     3.9941720947    -0.7149677294
   66      H     -10.1189018870    -7.4456754019     3.9315568957
   67      H      -8.5550515860    -6.8078284469     4.4653971698
   68      H      -9.8831314922    -5.7008701741     4.0595274309
   69      H      -8.5619668654    -7.6219332447     2.0768579306
   70      H      -9.7778338164    -6.4131662982     1.6783357522
   71      H      -6.9581576982    -5.8187569833     2.7363040431
   72      H      -7.4455777703    -5.7829090847     1.0448800154
   73      H      -9.0871045402    -3.9517809764     1.5488127238
   74      H      -8.6092056694    -3.9917046429     3.2423259715
   75      H      -6.2778455564    -3.3558373659     2.6316753766
   76      H      -7.4927386300    -2.1531962245     2.2330264147
   77      H      -6.1664186060    -4.0925347219     0.2599198980
   78      H      -7.4966054007    -3.0339668488    -0.1698621856
   79      H      -3.7645080073    -3.1536019240     0.5869877304
   80      H       2.0984147473    -2.2945745428     0.5422889414
   81      H       6.2708495490     3.0930403041    -0.5825376487
   82      H       9.8721964981     2.8305277769    -1.2362460353
   83      H       8.5985239238     3.9725119970    -0.8851247536
   84      H      10.5980201095     4.2839402989     0.5516149257
   85      H      10.4078024441     2.6670239388     1.2145242590
   86      H       8.1720588862     3.3306332961     2.1702364877
   87      H       8.3369583528     4.9156819052     1.4355418826
   88      H       8.8904058322     5.0386659505     3.7944745358
   89      H      10.2951053454     5.4348307687     2.8187672413
   90      H      10.9171073985     4.0720750918     4.7470901891
   91      H      11.2974802703     3.2198528714     3.2623048324
   92      H       8.8024616421     2.7142210296     4.9748325448
   93      H       9.2797499558     1.7839243723     3.5394427284
   94      H      10.2802071958     1.7371784295     4.9935687641
   95      H       9.7284462646    -0.6483693537     2.1929943696
   96      H      12.1776445665    -1.5648828728     1.8445407902
   97      H      14.1997548417    -0.7197589726    -0.2759022221
   98      H      14.3227897143    -3.6125146734    -3.6007943174
   99      H       0.4107806518     2.2182489528    -0.6182411778
  100      H      -7.2550555044     0.9694082610     1.5989333785
  101      H      -9.4793064779     1.9602774704     1.2927480798
  102      H      -7.6224243149    -1.0410736533    -2.1956598487
  103      H      -9.8393451696    -0.0365834864    -2.5162058186
  104      H     -13.0052876915     2.4057949826    -2.6345506621
  105      H     -14.8399032689     1.0470733527    -3.5592490538
  106      H     -15.1224577164    -1.3174060916    -2.8597331131
  107      H     -13.5579103634    -2.3142771605    -1.2108185785
  108      H     -11.7331550747    -0.9631437763    -0.2555057583
  109      H     -13.3371065126     2.6500826248     0.4114358133
  110      H     -13.7314381784     5.0033419582     1.0214614331
  111      H     -12.0116240209     6.7270234350     0.5392300774
  112      H      -9.8905792240     6.0789320879    -0.5751213507
  113      H      -9.4896021228     3.7359603665    -1.2167604681
 ----------------------------------------------------------------
 Molecular Point Group                 C1    NOp =  1
 Largest Abelian Subgroup              C1    NOp =  1
 Nuclear Repulsion Energy =        8974.20983039 hartrees
 There are      248 alpha and      248 beta electrons
 Requested basis set is 6-31G(d)
 There are 361 shells and 1091 basis functions

 Total QAlloc Memory Limit   2000 MB
 Mega-Array Size       489 MB
 MEM_STATIC part       500 MB
 A cutoff of  1.0D-11 yielded  14847 shell pairs
 There are    143396 function pairs
 Smallest overlap matrix eigenvalue = 3.69E-04

 Scale SEOQF with 1.000000e-02/1.000000e-02/1.000000e-01

 Standard Electronic Orientation quadrupole field applied
 Nucleus-field energy     =     0.0000000424 hartrees
 Guess from superposition of atomic densities
 Warning:  Energy on first SCF cycle will be non-variational
 SAD guess density has 496.000001 electrons

 -----------------------------------------------------------------------
  General SCF calculation program by
  Eric Jon Sundstrom, Paul Horn, Yuezhi Mao, Dmitri Zuev, Alec White,
  David Stuck, Shaama M.S., Shane Yost, Joonho Lee, David Small,
  Daniel Levine, Susi Lehtola, Hugh Burton, Evgeny Epifanovsky,
  Bang C. Huynh
 -----------------------------------------------------------------------
 Exchange:     0.2500 Hartree-Fock + 0.7500 PBE
 Correlation:  1.0000 PBE
 Using SG-1 standard quadrature grid
 using 12 threads for integral computing
 -------------------------------------------------------
 OpenMP Integral computing Module                
 Release: version 1.0, May 2013, Q-Chem Inc. Pittsburgh 
 -------------------------------------------------------
 A restricted SCF calculation will be
 performed using DIIS
 SCF converges when DIIS error is below 1.0e-08
 ---------------------------------------
  Cycle       Energy         DIIS error
 ---------------------------------------
    1   -4460.3944234923      2.45e-02  
    2   -4442.6574492131      2.28e-03  
    3   -4441.7263678094      3.49e-03  
    4   -4443.3406687142      9.12e-04  
    5   -4443.4482896408      2.47e-04  
    6   -4443.4539829464      1.40e-04  
    7   -4443.4566053287      3.97e-05  
    8   -4443.4567998571      1.50e-05  
    9   -4443.4568308832      3.71e-06  
   10   -4443.4568327160      1.41e-06  
   11   -4443.4568329752      6.19e-07  
   12   -4443.4568330287      2.26e-07  
   13   -4443.4568330364      7.43e-08  
   14   -4443.4568330372      2.56e-08  
   15   -4443.4568330373      1.07e-08  
   16   -4443.4568330373      4.24e-09  Convergence criterion met
 ---------------------------------------
 SCF time:   CPU 7192.96s  wall 1028.00s 
 SCF   energy in the final basis set =    -4443.4568330373
 Total energy in the final basis set =    -4443.4568330373

 --------------------------------------------------------------

                    Orbital Energies (a.u.)
 --------------------------------------------------------------

 Alpha MOs
 -- Occupied --
-89.0943 -89.0808 -89.0779 -89.0749 -89.0699 -19.2872 -19.2289 -14.4421
-14.4293 -14.4087 -14.4039 -10.3949 -10.3255 -10.3222 -10.3149 -10.3104
-10.3049 -10.2994 -10.2989 -10.2924 -10.2915 -10.2899 -10.2880 -10.2874
-10.2826 -10.2815 -10.2813 -10.2809 -10.2800 -10.2746 -10.2715 -10.2675
-10.2668 -10.2614 -10.2576 -10.2573 -10.2568 -10.2547 -10.2538 -10.2507
-10.2507 -10.2484 -10.2473 -10.2471 -10.2441 -10.2438 -10.2430 -10.2429
-10.2428 -10.2423 -10.2417 -10.2417 -10.2394 -10.2386 -10.2376 -10.2354
-10.2302 -10.2282 -10.2274 -10.2268 -10.2263 -10.2259 -10.2253 -10.2202
-10.2174  -8.0625  -8.0488  -8.0477  -8.0447  -8.0379  -5.9998  -5.9959
 -5.9927  -5.9860  -5.9849  -5.9822  -5.9819  -5.9815  -5.9791  -5.9785
 -5.9775  -5.9752  -5.9744  -5.9714  -5.9684  -1.1414  -1.0569  -1.0088
 -1.0017  -0.9848  -0.9633  -0.9504  -0.9284  -0.9252  -0.8891  -0.8847
 -0.8821  -0.8803  -0.8647  -0.8479  -0.8434  -0.8384  -0.8298  -0.8217
 -0.8106  -0.8092  -0.8028  -0.7863  -0.7840  -0.7828  -0.7728  -0.7713
 -0.7687  -0.7678  -0.7671  -0.7607  -0.7567  -0.7423  -0.7289  -0.7255
 -0.7168  -0.7048  -0.6808  -0.6715  -0.6690  -0.6646  -0.6498  -0.6478
 -0.6376  -0.6301  -0.6290  -0.6285  -0.6251  -0.6228  -0.6213  -0.6138
 -0.6097  -0.6022  -0.5934  -0.5826  -0.5788  -0.5743  -0.5672  -0.5661
 -0.5568  -0.5551  -0.5508  -0.5478  -0.5386  -0.5338  -0.5175  -0.5160
 -0.5094  -0.4992  -0.4975  -0.4922  -0.4837  -0.4832  -0.4792  -0.4780
 -0.4750  -0.4746  -0.4705  -0.4696  -0.4691  -0.4668  -0.4634  -0.4629
 -0.4621  -0.4591  -0.4578  -0.4560  -0.4503  -0.4472  -0.4464  -0.4436
 -0.4425  -0.4402  -0.4392  -0.4370  -0.4346  -0.4334  -0.4307  -0.4299
 -0.4271  -0.4216  -0.4184  -0.4142  -0.4095  -0.4078  -0.4060  -0.4041
 -0.4027  -0.3987  -0.3971  -0.3941  -0.3931  -0.3912  -0.3895  -0.3849
 -0.3833  -0.3831  -0.3820  -0.3790  -0.3767  -0.3726  -0.3710  -0.3706
 -0.3700  -0.3669  -0.3655  -0.3623  -0.3591  -0.3568  -0.3548  -0.3538
 -0.3508  -0.3494  -0.3469  -0.3462  -0.3427  -0.3340  -0.3321  -0.3292
 -0.3271  -0.3256  -0.3233  -0.3218  -0.3166  -0.3154  -0.3072  -0.3016
 -0.2955  -0.2915  -0.2908  -0.2857  -0.2747  -0.2736  -0.2709  -0.2677
 -0.2661  -0.2625  -0.2597  -0.2579  -0.2403  -0.2336  -0.2146  -0.1988
 -- Virtual --
 -0.0986  -0.0769  -0.0512  -0.0296  -0.0184  -0.0153  -0.0095  -0.0079
  0.0031   0.0037   0.0074   0.0081   0.0112   0.0154   0.0207   0.0285
  0.0288   0.0312   0.0337   0.0441   0.0479   0.0535   0.0728   0.0798
  0.0852   0.0874   0.0895   0.0941   0.0961   0.0995   0.1010   0.1044
  0.1076   0.1127   0.1201   0.1215   0.1240   0.1260   0.1292   0.1296
  0.1317   0.1352   0.1367   0.1457   0.1510   0.1516   0.1553   0.1555
  0.1571   0.1580   0.1602   0.1609   0.1612   0.1634   0.1636   0.1659
  0.1675   0.1698   0.1705   0.1727   0.1745   0.1780   0.1785   0.1791
  0.1816   0.1842   0.1850   0.1864   0.1891   0.1916   0.1935   0.1951
  0.1955   0.1971   0.1985   0.2002   0.2015   0.2020   0.2033   0.2048
  0.2066   0.2094   0.2163   0.2177   0.2236   0.2251   0.2291   0.2334
  0.2337   0.2389   0.2412   0.2415   0.2445   0.2464   0.2483   0.2537
  0.2555   0.2567   0.2572   0.2614   0.2668   0.2696   0.2711   0.2719
  0.2760   0.2820   0.2860   0.2881   0.2895   0.2919   0.2943   0.2972
  0.2977   0.3035   0.3052   0.3062   0.3111   0.3121   0.3135   0.3156
  0.3229   0.3257   0.3301   0.3349   0.3376   0.3397   0.3487   0.3572
  0.3605   0.3622   0.3637   0.3659   0.3677   0.3743   0.3772   0.3824
  0.3839   0.3867   0.3900   0.3932   0.3975   0.4026   0.4031   0.4057
  0.4212   0.4268   0.4315   0.4381   0.4463   0.4500   0.4600   0.4628
  0.4635   0.4677   0.4723   0.4809   0.4861   0.4958   0.4965   0.4993
  0.5052   0.5068   0.5100   0.5123   0.5134   0.5186   0.5243   0.5246
  0.5274   0.5305   0.5315   0.5336   0.5360   0.5385   0.5389   0.5419
  0.5424   0.5441   0.5471   0.5482   0.5496   0.5505   0.5562   0.5574
  0.5578   0.5602   0.5620   0.5625   0.5651   0.5685   0.5728   0.5748
  0.5784   0.5797   0.5803   0.5830   0.5831   0.5860   0.5865   0.5889
  0.5914   0.5937   0.5944   0.5968   0.5989   0.6012   0.6039   0.6040
  0.6057   0.6086   0.6090   0.6108   0.6112   0.6127   0.6136   0.6169
  0.6212   0.6242   0.6248   0.6292   0.6307   0.6307   0.6347   0.6352
  0.6378   0.6389   0.6403   0.6427   0.6481   0.6486   0.6535   0.6569
  0.6576   0.6589   0.6624   0.6677   0.6690   0.6737   0.6760   0.6763
  0.6849   0.6870   0.6878   0.6927   0.6955   0.6992   0.6999   0.7036
  0.7059   0.7071   0.7086   0.7157   0.7198   0.7200   0.7245   0.7258
  0.7279   0.7315   0.7329   0.7356   0.7434   0.7450   0.7476   0.7494
  0.7524   0.7574   0.7581   0.7630   0.7699   0.7715   0.7792   0.7803
  0.7820   0.7906   0.7922   0.7942   0.7968   0.8007   0.8063   0.8075
  0.8101   0.8157   0.8159   0.8192   0.8235   0.8272   0.8293   0.8301
  0.8318   0.8344   0.8361   0.8397   0.8459   0.8461   0.8483   0.8500
  0.8555   0.8576   0.8584   0.8613   0.8624   0.8635   0.8641   0.8650
  0.8652   0.8676   0.8692   0.8757   0.8786   0.8797   0.8816   0.8829
  0.8837   0.8845   0.8871   0.8887   0.8891   0.8920   0.8948   0.8959
  0.8979   0.8997   0.9028   0.9061   0.9070   0.9079   0.9147   0.9165
  0.9188   0.9202   0.9222   0.9233   0.9247   0.9295   0.9315   0.9336
  0.9377   0.9385   0.9424   0.9443   0.9467   0.9487   0.9491   0.9529
  0.9551   0.9566   0.9614   0.9683   0.9703   0.9706   0.9728   0.9741
  0.9779   0.9803   0.9839   0.9846   0.9859   0.9881   0.9927   0.9937
  0.9953   0.9983   1.0028   1.0046   1.0066   1.0082   1.0108   1.0121
  1.0155   1.0202   1.0219   1.0236   1.0251   1.0285   1.0286   1.0326
  1.0343   1.0388   1.0424   1.0453   1.0457   1.0502   1.0522   1.0545
  1.0578   1.0591   1.0628   1.0631   1.0696   1.0739   1.0797   1.0808
  1.0867   1.0884   1.0910   1.0991   1.1064   1.1071   1.1102   1.1129
  1.1190   1.1219   1.1237   1.1369   1.1390   1.1474   1.1516   1.1565
  1.1630   1.1644   1.1725   1.1794   1.1813   1.1847   1.1868   1.1945
  1.2026   1.2036   1.2066   1.2097   1.2123   1.2168   1.2276   1.2306
  1.2319   1.2344   1.2388   1.2451   1.2503   1.2542   1.2599   1.2692
  1.2731   1.2742   1.2791   1.2878   1.2980   1.2998   1.3094   1.3145
  1.3160   1.3229   1.3255   1.3308   1.3333   1.3368   1.3646   1.3699
  1.3730   1.3775   1.3813   1.3830   1.3928   1.3957   1.3979   1.4055
  1.4085   1.4168   1.4239   1.4254   1.4298   1.4332   1.4378   1.4404
  1.4442   1.4453   1.4475   1.4526   1.4539   1.4558   1.4631   1.4707
  1.4758   1.4765   1.4812   1.4881   1.4923   1.4942   1.4994   1.5035
  1.5038   1.5090   1.5113   1.5122   1.5162   1.5176   1.5210   1.5233
  1.5288   1.5347   1.5393   1.5442   1.5470   1.5493   1.5510   1.5529
  1.5544   1.5647   1.5709   1.5755   1.5795   1.5895   1.5946   1.6172
  1.6330   1.6446   1.6542   1.6589   1.6597   1.6679   1.6781   1.6815
  1.6836   1.6970   1.6986   1.7036   1.7093   1.7173   1.7216   1.7237
  1.7259   1.7305   1.7329   1.7343   1.7485   1.7498   1.7587   1.7648
  1.7672   1.7698   1.7741   1.7835   1.7908   1.7957   1.8047   1.8079
  1.8122   1.8150   1.8199   1.8207   1.8224   1.8249   1.8297   1.8340
  1.8361   1.8413   1.8421   1.8470   1.8476   1.8517   1.8625   1.8789
  1.8844   1.8870   1.8905   1.8922   1.8933   1.8949   1.8967   1.9057
  1.9089   1.9147   1.9175   1.9191   1.9230   1.9278   1.9309   1.9345
  1.9359   1.9419   1.9433   1.9479   1.9517   1.9527   1.9570   1.9594
  1.9644   1.9727   1.9755   1.9789   1.9844   1.9898   1.9922   1.9932
  1.9940   1.9971   1.9983   1.9995   2.0003   2.0066   2.0075   2.0121
  2.0180   2.0207   2.0276   2.0292   2.0382   2.0428   2.0490   2.0543
  2.0629   2.0718   2.0749   2.0796   2.0800   2.0859   2.0942   2.1024
  2.1086   2.1152   2.1174   2.1186   2.1316   2.1334   2.1411   2.1420
  2.1475   2.1485   2.1531   2.1561   2.1590   2.1612   2.1642   2.1662
  2.1695   2.1721   2.1780   2.1831   2.1913   2.1973   2.2024   2.2075
  2.2169   2.2184   2.2287   2.2327   2.2365   2.2379   2.2402   2.2434
  2.2505   2.2546   2.2716   2.2740   2.2886   2.2905   2.2936   2.2947
  2.2974   2.3056   2.3062   2.3101   2.3141   2.3152   2.3171   2.3188
  2.3236   2.3242   2.3265   2.3331   2.3339   2.3404   2.3480   2.3520
  2.3627   2.3654   2.3682   2.3754   2.3781   2.3876   2.3903   2.3943
  2.4032   2.4112   2.4143   2.4192   2.4194   2.4297   2.4378   2.4423
  2.4450   2.4486   2.4532   2.4552   2.4627   2.4695   2.4799   2.4840
  2.4864   2.4889   2.4979   2.5043   2.5123   2.5156   2.5188   2.5204
  2.5266   2.5289   2.5418   2.5507   2.5795   2.5840   2.5856   2.5982
  2.6016   2.6021   2.6098   2.6143   2.6177   2.6307   2.6336   2.6376
  2.6479   2.6530   2.6560   2.6585   2.6663   2.6745   2.6769   2.6879
  2.7013   2.7058   2.7141   2.7204   2.7228   2.7344   2.7386   2.7397
  2.7484   2.7520   2.7551   2.7558   2.7645   2.7659   2.7681   2.7721
  2.7785   2.7840   2.7870   2.7932   2.8023   2.8107   2.8289   2.8351
  2.8356   2.8674   2.8687   2.8785   2.8867   2.8996   2.9053   2.9096
  2.9329   2.9481   2.9544   2.9652   2.9773   2.9901   2.9938   3.0014
  3.0089   3.0502   3.0571   3.0663   3.0874   3.1097   3.1167   3.1721
  3.1894   3.2085   3.2155   3.2177   3.2518   3.4024   3.4180   3.4297
  3.4365   3.4393   3.9031   3.9690   3.9851   3.9945   4.0007   4.0028
  4.0797   4.1076   4.1147   4.1234   4.1259   4.1268   4.1343   4.1434
  4.1466   4.1485   4.1509   4.1520   4.1552   4.1599   4.1679   4.1703
  4.1777   4.1864   4.1968   4.2009   4.2025   4.2041   4.2392   4.2411
  4.2463   4.2523   4.2538   4.2836   4.2898   4.3597   4.3615   4.3636
  4.3737   4.3793   4.3957   4.3968   4.4010   4.4181   4.4366   4.4503
  4.4570   4.4604   4.4631   4.4776   4.4824   4.5125   4.5185   4.5304
  4.5616   4.5643   4.5969   4.6023   4.6537   4.6538   4.7305   4.7511
  4.7617   4.7767   4.7917
 --------------------------------------------------------------

          Ground-State Mulliken Net Atomic Charges

     Atom                 Charge (a.u.)
  ----------------------------------------
      1 C                    -0.521697
      2 C                    -0.318920
      3 C                    -0.320210
      4 C                    -0.323085
      5 C                    -0.318152
      6 C                    -0.398765
      7 C                     0.165700
      8 C                    -0.190029
      9 C                    -0.226146
     10 C                     0.078217
     11 N                    -0.535151
     12 C                     0.312109
     13 C                    -0.192071
     14 C                    -0.222199
     15 C                     0.310319
     16 N                    -0.532710
     17 C                     0.076242
     18 C                    -0.220884
     19 C                    -0.191616
     20 C                     0.166238
     21 C                    -0.411146
     22 C                    -0.322563
     23 C                    -0.325259
     24 C                    -0.320737
     25 C                    -0.322484
     26 C                    -0.525469
     27 C                    -0.283725
     28 C                    -0.230492
     29 C                    -0.132402
     30 C                    -0.131348
     31 C                    -0.251603
     32 C                    -0.149314
     33 C                     0.013135
     34 C                     0.657432
     35 O                    -0.610793
     36 O                    -0.457986
     37 C                     0.260216
     38 N                    -0.472790
     39 S                     0.377596
     40 S                     0.392825
     41 S                     0.306753
     42 C                    -0.191986
     43 C                    -0.223320
     44 S                     0.304330
     45 S                     0.374096
     46 C                    -0.326154
     47 C                     0.047442
     48 C                    -0.184374
     49 C                    -0.204473
     50 C                    -0.180981
     51 C                    -0.205314
     52 C                     0.277367
     53 N                    -0.693955
     54 C                     0.267446
     55 C                    -0.198213
     56 C                    -0.175118
     57 C                    -0.171336
     58 C                    -0.174914
     59 C                    -0.198988
     60 C                     0.268380
     61 C                    -0.199164
     62 C                    -0.175002
     63 C                    -0.171304
     64 C                    -0.174892
     65 C                    -0.200398
     66 H                     0.171843
     67 H                     0.169060
     68 H                     0.172925
     69 H                     0.164085
     70 H                     0.162171
     71 H                     0.159556
     72 H                     0.164448
     73 H                     0.160883
     74 H                     0.168929
     75 H                     0.167134
     76 H                     0.174749
     77 H                     0.180154
     78 H                     0.181741
     79 H                     0.189651
     80 H                     0.196458
     81 H                     0.194581
     82 H                     0.191929
     83 H                     0.180623
     84 H                     0.167396
     85 H                     0.182321
     86 H                     0.177551
     87 H                     0.158793
     88 H                     0.163034
     89 H                     0.160937
     90 H                     0.166956
     91 H                     0.165432
     92 H                     0.172497
     93 H                     0.172876
     94 H                     0.169714
     95 H                     0.204961
     96 H                     0.197829
     97 H                     0.254687
     98 H                     0.451884
     99 H                     0.196103
    100 H                     0.188937
    101 H                     0.192404
    102 H                     0.185888
    103 H                     0.192046
    104 H                     0.187464
    105 H                     0.175351
    106 H                     0.168691
    107 H                     0.174043
    108 H                     0.183050
    109 H                     0.186285
    110 H                     0.174756
    111 H                     0.168684
    112 H                     0.175808
    113 H                     0.186489
  ----------------------------------------
  Sum of atomic charges =     0.000000

 -----------------------------------------------------------------
                    Cartesian Multipole Moments
 -----------------------------------------------------------------
    Charge (ESU x 10^10)
                -0.0000
    Dipole Moment (Debye)
         X      -4.8962      Y       1.7609      Z       2.3444
       Tot       5.7070
    Quadrupole Moments (Debye-Ang)
        XX    -413.7790     XY      33.0024     YY    -389.2416
        XZ      28.7070     YZ      -6.2881     ZZ    -409.8019
    Octopole Moments (Debye-Ang^2)
       XXX   -1987.0214    XXY     317.6755    XYY     -91.1595
       YYY      50.7287    XXZ     298.8841    XYZ     -78.8493
       YYZ      15.2218    XZZ      35.6979    YZZ      -6.1338
       ZZZ     -11.5174
    Hexadecapole Moments (Debye-Ang^3)
      XXXX -232240.2890   XXXY    4150.5761   XXYY  -36440.3071
      XYYY    -407.4989   YYYY  -17216.6926   XXXZ    7043.2153
      XXYZ    -312.9066   XYYZ    -170.4185   YYYZ      33.8083
      XXZZ  -35565.3935   XYZZ    -103.8849   YYZZ   -4104.5132
      XZZZ    -149.3441   YZZZ      94.3580   ZZZZ   -6516.0299
 -----------------------------------------------------------------
 Calculating analytic gradient of the SCF energy
 Gradient of SCF Energy
            1           2           3           4           5           6
    1   0.0033055  -0.0057755   0.0095652  -0.0095666   0.0076292  -0.0048550
    2   0.0012913   0.0008279  -0.0014186   0.0021750   0.0006748  -0.0041347
    3   0.0017320  -0.0032357   0.0034629  -0.0022836  -0.0000374  -0.0010661
            7           8           9          10          11          12
    1  -0.0143314   0.0114409  -0.0015763   0.0018360   0.0019047   0.0064990
    2   0.0007873  -0.0071592   0.0128627  -0.0309948   0.0064364  -0.0190947
    3   0.0042453   0.0014894  -0.0040701   0.0076544  -0.0013844   0.0048183
           13          14          15          16          17          18
    1  -0.0269859  -0.0004905  -0.0063723  -0.0027966   0.0006780  -0.0010970
    2   0.0084235   0.0143193   0.0187118  -0.0070206   0.0312428  -0.0126208
    3  -0.0028696  -0.0035989  -0.0048640   0.0020811  -0.0083666   0.0017867
           19          20          21          22          23          24
    1  -0.0137923   0.0201995  -0.0025509   0.0057592  -0.0071052  -0.0002468
    2   0.0062032  -0.0033534   0.0039403  -0.0025939  -0.0008355   0.0012415
    3  -0.0027804   0.0051048   0.0006254  -0.0023114  -0.0010248   0.0010482
           25          26          27          28          29          30
    1   0.0033627  -0.0034834   0.0071284  -0.0040332  -0.0112129   0.0067473
    2  -0.0021325   0.0012280  -0.0189777   0.0046255   0.0046603  -0.0059476
    3  -0.0005498  -0.0004530   0.0020226  -0.0146541   0.0067049   0.0019912
           31          32          33          34          35          36
    1   0.0214882  -0.0075497  -0.0088709  -0.0239542  -0.0116244   0.0267106
    2  -0.0071908   0.0055398  -0.0114159   0.0020001  -0.0014288   0.0159809
    3  -0.0187715  -0.0012668  -0.0062325   0.0058001  -0.0009595   0.0161045
           37          38          39          40          41          42
    1  -0.0014066   0.0048380   0.0002105   0.0059949   0.0022595   0.0260451
    2  -0.0013098   0.0041225   0.0012236   0.0163613  -0.0279030  -0.0080902
    3   0.0003357   0.0033747   0.0120983  -0.0021805   0.0071265   0.0026591
           43          44          45          46          47          48
    1   0.0012438  -0.0026777  -0.0065769  -0.0034976   0.0039390   0.0114063
    2  -0.0142404   0.0283995  -0.0133526   0.0111494   0.0027098  -0.0058430
    3   0.0035437  -0.0069496   0.0022767  -0.0034215  -0.0010346   0.0059248
           49          50          51          52          53          54
    1  -0.0032624   0.0131201  -0.0037682   0.0126712  -0.0017458  -0.0073362
    2   0.0019024  -0.0054427   0.0011737  -0.0057676   0.0006051  -0.0051876
    3  -0.0018869  -0.0018850   0.0007134   0.0020002  -0.0003478  -0.0030833
           55          56          57          58          59          60
    1   0.0000910  -0.0062981   0.0023959  -0.0045586   0.0011052  -0.0017160
    2  -0.0002022  -0.0002650   0.0017518  -0.0079123   0.0009755   0.0087860
    3   0.0024244  -0.0067788   0.0011748   0.0012295  -0.0016681   0.0020436
           61          62          63          64          65          66
    1   0.0009668  -0.0053808   0.0004936   0.0029868  -0.0006871   0.0006438
    2   0.0000902   0.0054962  -0.0029719   0.0083563  -0.0011686   0.0000433
    3  -0.0024404   0.0050161  -0.0007940  -0.0012540   0.0018797  -0.0019702
           67          68          69          70          71          72
    1  -0.0005254  -0.0001364   0.0005477   0.0003169  -0.0014134  -0.0021548
    2  -0.0001196  -0.0007068   0.0009309  -0.0003959   0.0001647  -0.0007457
    3  -0.0014077  -0.0016713   0.0015055   0.0018729  -0.0012260   0.0012500
           73          74          75          76          77          78
    1   0.0014435   0.0016399  -0.0011180  -0.0017135   0.0002008   0.0015979
    2  -0.0001293   0.0005937   0.0002451  -0.0014883   0.0000722  -0.0012080
    3   0.0010826  -0.0008054   0.0002847   0.0020916  -0.0002438  -0.0008398
           79          80          81          82          83          84
    1  -0.0009829  -0.0008593   0.0004483  -0.0014774   0.0016403  -0.0010969
    2   0.0014918  -0.0005790  -0.0012148   0.0002000   0.0014126  -0.0004443
    3  -0.0002086   0.0001197   0.0003070   0.0002594  -0.0006838   0.0003050
           85          86          87          88          89          90
    1  -0.0001916   0.0013440   0.0010697   0.0002824  -0.0003456  -0.0013910
    2   0.0016190   0.0015107  -0.0002038  -0.0003705  -0.0017033  -0.0009004
    3   0.0002245   0.0012900   0.0012522  -0.0012251   0.0004467   0.0002939
           91          92          93          94          95          96
    1  -0.0013762   0.0014859   0.0018948   0.0010651   0.0007182  -0.0007461
    2  -0.0001680   0.0003968   0.0008680   0.0015008  -0.0001660   0.0006360
    3   0.0009446  -0.0002447   0.0002163  -0.0009051   0.0003223   0.0004865
           97          98          99         100         101         102
    1  -0.0056126   0.0010262   0.0008121  -0.0001995   0.0010863  -0.0007318
    2   0.0065630  -0.0104649   0.0006484   0.0010345  -0.0000217  -0.0008864
    3   0.0043479  -0.0126646  -0.0001334   0.0012409   0.0019892  -0.0011064
          103         104         105         106         107         108
    1   0.0012478  -0.0015789  -0.0008265  -0.0000670  -0.0007631  -0.0011236
    2  -0.0010450   0.0003425  -0.0006628   0.0000114  -0.0004614  -0.0022102
    3  -0.0018568  -0.0021963  -0.0001705  -0.0000698  -0.0006133   0.0005432
          109         110         111         112         113
    1  -0.0017877  -0.0001090   0.0000068  -0.0001734   0.0011442
    2   0.0011902   0.0010952   0.0000736   0.0010203   0.0023322
    3   0.0017539   0.0001032   0.0000273   0.0004372  -0.0007440
 Max gradient component =       3.124E-02
 RMS gradient           =       6.743E-03
 Gradient time:  CPU 1571.88 s  wall 228.04 s
 Geometry Optimization Parameters
   NAtoms,    NIC,     NZ,  NCons,   NDum,   NFix, NCnnct, MaxDiis
      113     860       0       0       0       0       0       0


** GEOMETRY OPTIMIZATION IN DELOCALIZED INTERNAL COORDINATES **
   Searching for a Minimum

   Optimization Cycle:   1

                       Coordinates (Angstroms)
     ATOM                X               Y               Z
      1  C        -9.3938253932   -6.6390671571    3.7827249516
      2  C        -8.9254843256   -6.6202539491    2.3358538283
      3  C        -7.8026077609   -5.6146966721    2.0670176089
      4  C        -8.2460762389   -4.1576980858    2.2219009799
      5  C        -7.1219898184   -3.1496977693    1.9613676400
      6  C        -6.6408352554   -3.1355194560    0.5075652766
      7  C        -5.6501805324   -2.0301191517    0.2505067676
      8  C        -4.2256521863   -2.2053647359    0.3354240577
      9  C        -3.5065804175   -1.0530648670    0.0706668606
     10  C        -2.0724241589   -0.8623473598    0.0665173836
     11  N        -1.5091495351    0.2983838973   -0.2012081979
     12  C        -0.1329567360    0.1964017918   -0.1361727482
     13  C         0.3549890395   -1.0665909755    0.1888454668
     14  C         1.7252206129   -1.3062731509    0.2884145888
     15  C         2.6424774776   -0.2723693041    0.0612721451
     16  N         4.0188060714   -0.3738593566    0.1277906470
     17  C         4.5816717083    0.7860299989   -0.1438863812
     18  C         6.0157101515    0.9756475466   -0.1495076629
     19  C         6.7343821817    2.1351365372   -0.3753674726
     20  C         8.1622020066    1.9615932572   -0.2952811585
     21  C         9.1305169989    3.1032733945   -0.4770880884
     22  C         9.8542394527    3.5193904649    0.8083695475
     23  C         8.9071884404    4.0855422255    1.8712302224
     24  C         9.6357548752    4.6089785808    3.1133889329
     25  C        10.4653569602    3.5752445125    3.8798464247
     26  C         9.6550038722    2.3861871778    4.3718593796
     27  C         8.4785919965    0.6378661503   -0.0250615059
     28  C         9.7772316595    0.0346007817    0.1298623818
     29  C        10.2794939711   -0.5723139020    1.2627623054
     30  C        11.6023058643   -1.0684431268    1.0713132582
     31  C        12.0686067682   -0.8632921786   -0.2135143393
     32  C        13.3439599483   -1.2014068593   -0.7480308207
     33  C        13.5313082699   -2.0910687773   -1.7428778935
     34  C        14.9354122278   -2.3321863379   -2.1635624993
     35  O        15.1061907719   -3.1979959940   -3.1870508373
     36  O        15.8936571885   -1.7906812995   -1.6295918834
     37  C        12.4824902218   -2.8096851045   -2.3691935536
     38  N        11.7085144781   -3.4511891009   -2.9478881455
     39  S        10.9041212960   -0.0169633595   -1.1545788456
     40  S         7.0790134138   -0.3317164778    0.1578999331
     41  S         3.4779737379    2.0612580067   -0.4894733433
     42  C         2.1545163194    0.9904138229   -0.2643831055
     43  C         0.7843897751    1.2301687708   -0.3637432465
     44  S        -0.9685048815   -2.1374733517    0.4128189196
     45  S        -4.5699728228    0.2457698006   -0.2823905122
     46  C        -5.9649118815   -0.7223881961   -0.0823029166
     47  C        -7.2784837252   -0.1082061349   -0.2759199018
     48  C        -7.8148869090    0.7454790081    0.6936092938
     49  C        -9.0803977193    1.3136934063    0.5143829660
     50  C        -8.0241727750   -0.3859988946   -1.4259540767
     51  C        -9.2901057294    0.1818119483   -1.6032007740
     52  C        -9.8401577773    1.0407891381   -0.6361195871
     53  N       -11.1474900743    1.6246396122   -0.8191520142
     54  C       -12.2209975134    0.8308007017   -1.3693973980
     55  C       -13.1203595846    1.3766346851   -2.3024129324
     56  C       -14.1580912926    0.6076854337   -2.8360002269
     57  C       -14.3148911385   -0.7198552374   -2.4449263400
     58  C       -13.4355548796   -1.2800291295   -1.5214483033
     59  C       -12.3971358784   -0.5115514601   -0.9886642762
     60  C       -11.3811520158    3.0020289101   -0.4533041238
     61  C       -12.5769105402    3.3913187798    0.1762262557
     62  C       -12.8023199652    4.7239333120    0.5316503120
     63  C       -11.8363625980    5.6905064570    0.2630440571
     64  C       -10.6452375291    5.3267748332   -0.3602335505
     65  C       -10.4193047208    3.9941720947   -0.7149677294
     66  H       -10.1189018870   -7.4456754019    3.9315568957
     67  H        -8.5550515860   -6.8078284469    4.4653971698
     68  H        -9.8831314922   -5.7008701741    4.0595274309
     69  H        -8.5619668654   -7.6219332447    2.0768579306
     70  H        -9.7778338164   -6.4131662982    1.6783357522
     71  H        -6.9581576982   -5.8187569833    2.7363040431
     72  H        -7.4455777703   -5.7829090847    1.0448800154
     73  H        -9.0871045402   -3.9517809764    1.5488127238
     74  H        -8.6092056694   -3.9917046429    3.2423259715
     75  H        -6.2778455564   -3.3558373659    2.6316753766
     76  H        -7.4927386300   -2.1531962245    2.2330264147
     77  H        -6.1664186060   -4.0925347219    0.2599198980
     78  H        -7.4966054007   -3.0339668488   -0.1698621856
     79  H        -3.7645080073   -3.1536019240    0.5869877304
     80  H         2.0984147473   -2.2945745428    0.5422889414
     81  H         6.2708495490    3.0930403041   -0.5825376487
     82  H         9.8721964981    2.8305277769   -1.2362460353
     83  H         8.5985239238    3.9725119970   -0.8851247536
     84  H        10.5980201095    4.2839402989    0.5516149257
     85  H        10.4078024441    2.6670239388    1.2145242590
     86  H         8.1720588862    3.3306332961    2.1702364877
     87  H         8.3369583528    4.9156819052    1.4355418826
     88  H         8.8904058322    5.0386659505    3.7944745358
     89  H        10.2951053454    5.4348307687    2.8187672413
     90  H        10.9171073985    4.0720750918    4.7470901891
     91  H        11.2974802703    3.2198528714    3.2623048324
     92  H         8.8024616421    2.7142210296    4.9748325448
     93  H         9.2797499558    1.7839243723    3.5394427284
     94  H        10.2802071958    1.7371784295    4.9935687641
     95  H         9.7284462646   -0.6483693537    2.1929943696
     96  H        12.1776445665   -1.5648828728    1.8445407902
     97  H        14.1997548417   -0.7197589726   -0.2759022221
     98  H        14.3227897143   -3.6125146734   -3.6007943174
     99  H         0.4107806518    2.2182489528   -0.6182411778
    100  H        -7.2550555044    0.9694082610    1.5989333785
    101  H        -9.4793064779    1.9602774704    1.2927480798
    102  H        -7.6224243149   -1.0410736533   -2.1956598487
    103  H        -9.8393451696   -0.0365834864   -2.5162058186
    104  H       -13.0052876915    2.4057949826   -2.6345506621
    105  H       -14.8399032689    1.0470733527   -3.5592490538
    106  H       -15.1224577164   -1.3174060916   -2.8597331131
    107  H       -13.5579103634   -2.3142771605   -1.2108185785
    108  H       -11.7331550747   -0.9631437763   -0.2555057583
    109  H       -13.3371065126    2.6500826248    0.4114358133
    110  H       -13.7314381784    5.0033419582    1.0214614331
    111  H       -12.0116240209    6.7270234350    0.5392300774
    112  H        -9.8905792240    6.0789320879   -0.5751213507
    113  H        -9.4896021228    3.7359603665   -1.2167604681
   Point Group: c1    Number of degrees of freedom:   333


   Energy is  -4443.456833037


 Attempting to generate delocalized internal coordinates
 Initial Hessian constructed with Jon Baker's OPTIMIZE code

333 Hessian modes will be used to form the next step
  Hessian Eigenvalues:
     0.004846    0.004914    0.004925    0.004942    0.005022    0.005063
     0.005065    0.005098    0.006414    0.006437    0.008118    0.008326
     0.009802    0.009814    0.009839    0.009900    0.011101    0.014082
     0.014091    0.014304    0.014652    0.016218    0.016252    0.016446
     0.016649    0.016699    0.017065    0.017079    0.017236    0.017298
     0.017307    0.017901    0.017913    0.017951    0.017967    0.018145
     0.018658    0.018978    0.019187    0.019289    0.019913    0.019968
     0.020242    0.020780    0.021001    0.021093    0.021207    0.021549
     0.021678    0.021709    0.021731    0.021740    0.021807    0.021824
     0.021878    0.021988    0.022072    0.022083    0.022112    0.022119
     0.022170    0.022195    0.022212    0.022219    0.022346    0.022398
     0.022573    0.022585    0.022593    0.022635    0.022635    0.022729
     0.022754    0.022759    0.023009    0.023015    0.023067    0.023075
     0.023087    0.023208    0.023219    0.023361    0.023377    0.024537
     0.029324    0.033717    0.035478    0.035621    0.035820    0.035892
     0.035971    0.035981    0.036125    0.040199    0.042429    0.048704
     0.049094    0.049162    0.049289    0.049295    0.049370    0.049690
     0.049805    0.054765    0.054904    0.056339    0.056427    0.058178
     0.058190    0.084452    0.084936    0.085056    0.085077    0.085442
     0.085885    0.086113    0.088935    0.094198    0.096854    0.122753
     0.123048    0.123160    0.123182    0.123438    0.123694    0.123872
     0.125885    0.128398    0.130492    0.159937    0.159965    0.159967
     0.159969    0.159971    0.159973    0.159974    0.159978    0.159985
     0.159988    0.159996    0.159997    0.159999    0.159999    0.159999
     0.159999    0.159999    0.160000    0.160000    0.160000    0.160000
     0.160000    0.160000    0.160000    0.160000    0.160000    0.160000
     0.160000    0.200000    0.200000    0.219094    0.219129    0.219131
     0.219202    0.219202    0.219303    0.219333    0.219335    0.219414
     0.219659    0.220000    0.220000    0.220002    0.220002    0.220003
     0.220020    0.227131    0.229658    0.231770    0.234674    0.234676
     0.236242    0.236267    0.239993    0.240070    0.245465    0.249554
     0.249948    0.249957    0.249958    0.249973    0.249981    0.249982
     0.249991    0.249997    0.249998    0.249999    0.250000    0.250000
     0.250000    0.250000    0.250000    0.250000    0.250000    0.250000
     0.250000    0.250000    0.250000    0.250000    0.250000    0.250000
     0.250000    0.250000    0.291707    0.292177    0.292249    0.292370
     0.292925    0.293210    0.293220    0.293452    0.302802    0.302968
     0.315504    0.317102    0.323371    0.324881    0.327321    0.332228
     0.332434    0.332763    0.334466    0.335228    0.337309    0.337742
     0.339306    0.339508    0.339663    0.339722    0.339799    0.339832
     0.340028    0.340075    0.340354    0.340483    0.340533    0.340582
     0.340739    0.341028    0.341105    0.341498    0.341557    0.341636
     0.341863    0.342059    0.342624    0.342681    0.342909    0.342936
     0.342981    0.343743    0.343847    0.348564    0.350757    0.350819
     0.350862    0.350880    0.350946    0.350993    0.351034    0.351208
     0.351693    0.351728    0.351764    0.351791    0.351853    0.351913
     0.352109    0.352212    0.354986    0.354994    0.355134    0.355310
     0.365993    0.385967    0.386689    0.387030    0.389475    0.390182
     0.390310    0.391182    0.395476    0.399472    0.404644    0.413378
     0.415194    0.415223    0.415434    0.415477    0.415660    0.418249
     0.419270    0.428717    0.446975    0.449438    0.449523    0.449531
     0.451030    0.452087    0.453511    0.455054    0.457365    0.458043
     0.458307    0.458463    0.459549    0.459659    0.460465    0.460493
     0.465371    0.467065    0.467243    0.474775    0.475316    0.478369
     0.478664    0.485192    0.517509    0.547216    0.555118    0.599182
     0.600278    0.939142    1.278351

 Minimum search - taking simple RFO step
 Searching for Lamda that Minimizes Along All modes
 Value Taken    Lamda =  -0.03730699
 Calculated Step too Large.  Step scaled by  0.792259
 Step Taken.  Stepsize is  0.300000

                             Maximum     Tolerance    Cnvgd?
         Gradient           0.024965      0.000300      NO
         Displacement       0.063301      0.001200      NO
         Energy change     *********      0.000001      NO


 New Cartesian Coordinates Obtained by Inverse Iteration

 Displacement from previous Coordinates is:  3.059095
 ----------------------------------------------------------------
             Standard Nuclear Orientation (Angstroms)
    I     Atom           X                Y                Z
 ----------------------------------------------------------------
    1      C      -9.3463984497    -6.5230967699     3.8277343884
    2      C      -8.9023969299    -6.5299063367     2.3677314120
    3      C      -7.7744172408    -5.5424254665     2.0528779576
    4      C      -8.1808692004    -4.0755908639     2.1995135002
    5      C      -7.0545251245    -3.0810521262     1.8973643875
    6      C      -6.5991999841    -3.0813335742     0.4348871915
    7      C      -5.6024045910    -1.9929100356     0.1476548496
    8      C      -4.1923447640    -2.1775738135     0.2094133936
    9      C      -3.4718181510    -1.0341857260    -0.0635574405
   10      C      -2.0416183709    -0.8530373508    -0.0807614344
   11      N      -1.4867091643     0.3004889573    -0.3524925491
   12      C      -0.1177751635     0.1955063197    -0.2890961972
   13      C       0.3805089471    -1.0885507095     0.0445106111
   14      C       1.7387254944    -1.3457309570     0.1512921132
   15      C       2.6291772967    -0.2953095095    -0.0793964217
   16      N       3.9977243209    -0.3972738988    -0.0040767779
   17      C       4.5515987462     0.7568995028    -0.2712779011
   18      C       5.9823978606     0.9402440563    -0.2557160355
   19      C       6.7080683486     2.0921916492    -0.4748104333
   20      C       8.1153506610     1.9139922365    -0.3603462553
   21      C       9.1025152988     3.0387765372    -0.5186854557
   22      C       9.7761412863     3.4570531020     0.7935849975
   23      C       8.7964101739     4.0402604976     1.8110872766
   24      C       9.4678447090     4.5557651954     3.0879174262
   25      C      10.2388911260     3.5084202388     3.8959980898
   26      C       9.3856893697     2.3281712882     4.3509565764
   27      C       8.4240661069     0.5962329624    -0.0638164643
   28      C       9.7317123044    -0.0079986728     0.1423748091
   29      C      10.1984559989    -0.6260242004     1.2825115319
   30      C      11.5262191377    -1.1048719267     1.1487768329
   31      C      12.0545163348    -0.8805634592    -0.1036283505
   32      C      13.3847717631    -1.2102928427    -0.5785379042
   33      C      13.6630611166    -2.0424394149    -1.6056013914
   34      C      15.1001073976    -2.2665184205    -1.9619300382
   35      O      15.3405173688    -3.0735300377    -3.0036659609
   36      O      16.0140703618    -1.7611462097    -1.3542381871
   37      C      12.6644490468    -2.7308522996    -2.3484832310
   38      N      11.9377679530    -3.3431763525    -3.0176377945
   39      S      10.9162328083    -0.0504159149    -1.1041262694
   40      S       7.0192755827    -0.3897823587     0.0789000894
   41      S       3.4625516171     2.0675432723    -0.6399762371
   42      C       2.1315844945     0.9879793371    -0.4155634936
   43      C       0.7728932214     1.2449059872    -0.5233155504
   44      S      -0.9501907019    -2.1673504185     0.2719716572
   45      S      -4.5226349653     0.2859346507    -0.4083449055
   46      C      -5.9216077749    -0.6882736587    -0.1788207302
   47      C      -7.2552535006    -0.0820819765    -0.3356899571
   48      C      -7.7671754125     0.7823068131     0.6381450233
   49      C      -9.0346108056     1.3385913234     0.5031168948
   50      C      -8.0453056528    -0.3710925007    -1.4539293958
   51      C      -9.3111067556     0.1879053328    -1.5953868305
   52      C      -9.8217587178     1.0478277616    -0.6166402375
   53      N     -11.1132347993     1.6124461958    -0.7570404817
   54      C     -12.1770087706     0.8259238220    -1.2712519535
   55      C     -13.1014761933     1.3777754905    -2.1649423342
   56      C     -14.1452715349     0.6048828554    -2.6648762823
   57      C     -14.2770929125    -0.7290633117    -2.2867402622
   58      C     -13.3579132966    -1.2846442503    -1.4002353490
   59      C     -12.3167189858    -0.5138235301    -0.8918155665
   60      C     -11.3424418188     2.9625232965    -0.3841364024
   61      C     -12.5250151832     3.3265944482     0.2694282049
   62      C     -12.7497942379     4.6512435715     0.6318912873
   63      C     -11.7965018432     5.6280042000     0.3550000233
   64      C     -10.6159720879     5.2708055820    -0.2918328169
   65      C     -10.3896766556     3.9487564302    -0.6631207885
   66      H     -10.0830078567    -7.3129110238     4.0117447553
   67      H      -8.4969633903    -6.6961836881     4.4982669837
   68      H      -9.8116488273    -5.5723946283     4.1075308547
   69      H      -8.5623504342    -7.5412392618     2.1095492320
   70      H      -9.7639168360    -6.3161500095     1.7217302341
   71      H      -6.9162799545    -5.7508352702     2.7066333396
   72      H      -7.4386465393    -5.7266914889     1.0242409546
   73      H      -9.0362108786    -3.8658860186     1.5425762343
   74      H      -8.5219489267    -3.8945397647     3.2263956963
   75      H      -6.1950616993    -3.2907995291     2.5481352570
   76      H      -7.3987454740    -2.0718544112     2.1579776712
   77      H      -6.1445442551    -4.0468748636     0.1836770910
   78      H      -7.4721186532    -2.9691973037    -0.2201270153
   79      H      -3.7327629268    -3.1295627527     0.4578107024
   80      H       2.1197917521    -2.3298326115     0.4085669382
   81      H       6.2535772417     3.0524606492    -0.6978691486
   82      H       9.8724101260     2.7521213988    -1.2459210973
   83      H       8.5895880974     3.9060310997    -0.9527976726
   84      H      10.5431662802     4.2092598285     0.5649547406
   85      H      10.2990560523     2.5953992663     1.2238282476
   86      H       8.0359446971     3.2930454666     2.0697836618
   87      H       8.2574358623     4.8753031629     1.3428149992
   88      H       8.6968692330     4.9977991418     3.7336252921
   89      H      10.1529296521     5.3737380311     2.8250788206
   90      H      10.6603105048     4.0019641995     4.7812526421
   91      H      11.0955201069     3.1407636252     3.3173824757
   92      H       8.5082432598     2.6703133206     4.9112006488
   93      H       9.0337954545     1.7306560836     3.5031881410
   94      H       9.9610786720     1.6627866562     5.0041989830
   95      H       9.6078683256    -0.7168857607     2.1868882328
   96      H      12.0716717174    -1.6043822168     1.9419381546
   97      H      14.2288774537    -0.7660591390    -0.0526790526
   98      H      14.5340953583    -3.4213801331    -3.4186291917
   99      H       0.3914468803     2.2291865278    -0.7793382695
  100      H      -7.1748598908     1.0164977062     1.5183716624
  101      H      -9.4175846902     1.9933739856     1.2811038836
  102      H      -7.6645851435    -1.0301250515    -2.2293282091
  103      H      -9.8997833378    -0.0357441499    -2.4806590226
  104      H     -12.9980924808     2.4127062370    -2.4796027641
  105      H     -14.8531900802     1.0483547839    -3.3593893568
  106      H     -15.0913362349    -1.3317683075    -2.6802977773
  107      H     -13.4537083932    -2.3225393117    -1.0937834619
  108      H     -11.6163711208    -0.9526438643    -0.1862124402
  109      H     -13.2679594075     2.5695630161     0.5053827899
  110      H     -13.6725126072     4.9169240854     1.1400885590
  111      H     -11.9724592259     6.6615305975     0.6414333129
  112      H      -9.8669168188     6.0246623676    -0.5173748056
  113      H      -9.4725186860     3.6846980305    -1.1828387292
 ----------------------------------------------------------------
 Molecular Point Group                 C1    NOp =  1
 Largest Abelian Subgroup              C1    NOp =  1
 Nuclear Repulsion Energy =        9000.00093185 hartrees
 There are      248 alpha and      248 beta electrons
 Applying Cartesian multipole field
    Component          Value
    ---------          -----
     (2,0,0)        1.00000E-12
     (0,2,0)        2.00000E-12
     (0,0,2)       -3.00000E-11
 Nucleus-field energy     =     0.0000000460 hartrees
 Requested basis set is 6-31G(d)
 There are 361 shells and 1091 basis functions
 A cutoff of  1.0D-11 yielded  14948 shell pairs
 There are    144033 function pairs
 Smallest overlap matrix eigenvalue = 3.82E-04
 Guess MOs from SCF MO coefficient file

 -----------------------------------------------------------------------
  General SCF calculation program by
  Eric Jon Sundstrom, Paul Horn, Yuezhi Mao, Dmitri Zuev, Alec White,
  David Stuck, Shaama M.S., Shane Yost, Joonho Lee, David Small,
  Daniel Levine, Susi Lehtola, Hugh Burton, Evgeny Epifanovsky,
  Bang C. Huynh
 -----------------------------------------------------------------------
 Exchange:     0.2500 Hartree-Fock + 0.7500 PBE
 Correlation:  1.0000 PBE
 Using SG-1 standard quadrature grid
 using 12 threads for integral computing
 -------------------------------------------------------
 OpenMP Integral computing Module                
 Release: version 1.0, May 2013, Q-Chem Inc. Pittsburgh 
 -------------------------------------------------------
 A restricted SCF calculation will be
 performed using DIIS
 SCF converges when DIIS error is below 1.0e-08
 ---------------------------------------
  Cycle       Energy         DIIS error
 ---------------------------------------
    1   -4443.4392971053      3.71e-04  
    2   -4443.4743369119      8.33e-05  
    3   -4443.4729905376      1.32e-04  
    4   -4443.4754996770      2.57e-05  
    5   -4443.4755900538      1.17e-05  
    6   -4443.4756107426      3.12e-06  
    7   -4443.4756120170      1.36e-06  
    8   -4443.4756122678      5.03e-07  
    9   -4443.4756123037      1.80e-07  
   10   -4443.4756123081      7.00e-08  
   11   -4443.4756123087      2.81e-08  
   12   -4443.4756123088      9.01e-09  Convergence criterion met
 ---------------------------------------
 SCF time:   CPU 5795.33s  wall 915.00s 
 SCF   energy in the final basis set =    -4443.4756123088
 Total energy in the final basis set =    -4443.4756123088

 --------------------------------------------------------------

                    Orbital Energies (a.u.)
 --------------------------------------------------------------

 Alpha MOs
 -- Occupied --
-89.0942 -89.0817 -89.0785 -89.0752 -89.0702 -19.2889 -19.2271 -14.4393
-14.4303 -14.4097 -14.4049 -10.3918 -10.3247 -10.3215 -10.3162 -10.3132
-10.3057 -10.3022 -10.3018 -10.2911 -10.2903 -10.2883 -10.2851 -10.2840
-10.2837 -10.2834 -10.2826 -10.2818 -10.2799 -10.2752 -10.2712 -10.2662
-10.2658 -10.2599 -10.2573 -10.2572 -10.2567 -10.2526 -10.2519 -10.2493
-10.2490 -10.2480 -10.2447 -10.2445 -10.2434 -10.2430 -10.2423 -10.2423
-10.2409 -10.2404 -10.2398 -10.2397 -10.2386 -10.2384 -10.2374 -10.2353
-10.2303 -10.2283 -10.2282 -10.2275 -10.2272 -10.2267 -10.2260 -10.2210
-10.2186  -8.0620  -8.0493  -8.0477  -8.0445  -8.0380  -5.9994  -5.9955
 -5.9923  -5.9866  -5.9849  -5.9828  -5.9817  -5.9816  -5.9796  -5.9784
 -5.9774  -5.9752  -5.9742  -5.9715  -5.9684  -1.1514  -1.0636  -1.0100
 -1.0029  -1.0002  -0.9625  -0.9484  -0.9277  -0.9245  -0.8907  -0.8850
 -0.8832  -0.8795  -0.8667  -0.8491  -0.8437  -0.8379  -0.8288  -0.8203
 -0.8103  -0.8080  -0.8027  -0.7862  -0.7850  -0.7836  -0.7740  -0.7731
 -0.7694  -0.7692  -0.7670  -0.7603  -0.7592  -0.7412  -0.7291  -0.7249
 -0.7162  -0.7032  -0.6809  -0.6715  -0.6676  -0.6615  -0.6517  -0.6509
 -0.6374  -0.6302  -0.6289  -0.6282  -0.6257  -0.6234  -0.6224  -0.6139
 -0.6100  -0.6018  -0.5931  -0.5839  -0.5782  -0.5746  -0.5664  -0.5649
 -0.5568  -0.5559  -0.5539  -0.5507  -0.5375  -0.5336  -0.5172  -0.5140
 -0.5102  -0.4995  -0.4975  -0.4921  -0.4865  -0.4862  -0.4784  -0.4776
 -0.4761  -0.4752  -0.4711  -0.4703  -0.4701  -0.4672  -0.4647  -0.4632
 -0.4621  -0.4616  -0.4584  -0.4571  -0.4495  -0.4478  -0.4467  -0.4432
 -0.4419  -0.4404  -0.4391  -0.4374  -0.4353  -0.4350  -0.4290  -0.4286
 -0.4245  -0.4202  -0.4179  -0.4143  -0.4105  -0.4090  -0.4068  -0.4059
 -0.4030  -0.4003  -0.3975  -0.3941  -0.3938  -0.3924  -0.3899  -0.3854
 -0.3849  -0.3837  -0.3828  -0.3785  -0.3767  -0.3734  -0.3719  -0.3714
 -0.3703  -0.3675  -0.3660  -0.3626  -0.3592  -0.3569  -0.3560  -0.3549
 -0.3516  -0.3507  -0.3481  -0.3459  -0.3422  -0.3358  -0.3320  -0.3295
 -0.3271  -0.3265  -0.3236  -0.3234  -0.3176  -0.3165  -0.3070  -0.3033
 -0.2995  -0.2948  -0.2900  -0.2858  -0.2750  -0.2747  -0.2721  -0.2698
 -0.2660  -0.2630  -0.2603  -0.2590  -0.2398  -0.2356  -0.2126  -0.1968
 -- Virtual --
 -0.0980  -0.0772  -0.0515  -0.0290  -0.0179  -0.0152  -0.0092  -0.0083
  0.0022   0.0050   0.0075   0.0094   0.0100   0.0133   0.0214   0.0245
  0.0271   0.0310   0.0346   0.0422   0.0486   0.0541   0.0798   0.0810
  0.0856   0.0885   0.0903   0.0952   0.0970   0.0985   0.1014   0.1049
  0.1085   0.1117   0.1195   0.1198   0.1245   0.1258   0.1287   0.1289
  0.1319   0.1351   0.1392   0.1460   0.1513   0.1523   0.1543   0.1555
  0.1557   0.1565   0.1590   0.1608   0.1611   0.1633   0.1653   0.1657
  0.1664   0.1682   0.1704   0.1725   0.1744   0.1775   0.1790   0.1797
  0.1815   0.1851   0.1856   0.1902   0.1914   0.1925   0.1935   0.1961
  0.1966   0.1983   0.1985   0.2009   0.2021   0.2023   0.2042   0.2064
  0.2108   0.2130   0.2174   0.2181   0.2232   0.2265   0.2307   0.2325
  0.2338   0.2361   0.2390   0.2395   0.2447   0.2468   0.2478   0.2541
  0.2548   0.2590   0.2614   0.2652   0.2665   0.2705   0.2727   0.2756
  0.2778   0.2830   0.2869   0.2891   0.2906   0.2943   0.2947   0.2982
  0.2996   0.3043   0.3059   0.3069   0.3109   0.3120   0.3129   0.3134
  0.3250   0.3277   0.3296   0.3361   0.3392   0.3418   0.3495   0.3605
  0.3648   0.3649   0.3656   0.3686   0.3703   0.3744   0.3765   0.3847
  0.3876   0.3910   0.3937   0.3950   0.3986   0.4003   0.4042   0.4067
  0.4207   0.4263   0.4306   0.4372   0.4442   0.4515   0.4587   0.4623
  0.4632   0.4679   0.4720   0.4808   0.4832   0.4971   0.4974   0.5004
  0.5057   0.5071   0.5114   0.5123   0.5149   0.5210   0.5243   0.5253
  0.5260   0.5296   0.5320   0.5349   0.5354   0.5386   0.5401   0.5432
  0.5437   0.5443   0.5451   0.5479   0.5502   0.5515   0.5561   0.5570
  0.5571   0.5584   0.5622   0.5643   0.5651   0.5669   0.5694   0.5745
  0.5778   0.5793   0.5811   0.5828   0.5863   0.5871   0.5887   0.5898
  0.5916   0.5924   0.5946   0.5960   0.6008   0.6017   0.6051   0.6064
  0.6084   0.6096   0.6101   0.6113   0.6119   0.6133   0.6160   0.6209
  0.6217   0.6258   0.6268   0.6294   0.6317   0.6318   0.6335   0.6374
  0.6384   0.6401   0.6418   0.6452   0.6484   0.6503   0.6554   0.6572
  0.6579   0.6610   0.6627   0.6710   0.6727   0.6746   0.6771   0.6776
  0.6868   0.6872   0.6885   0.6941   0.6963   0.6997   0.7031   0.7050
  0.7078   0.7086   0.7098   0.7172   0.7190   0.7201   0.7251   0.7261
  0.7274   0.7320   0.7334   0.7367   0.7415   0.7444   0.7452   0.7472
  0.7520   0.7573   0.7590   0.7631   0.7684   0.7705   0.7763   0.7792
  0.7802   0.7891   0.7907   0.7937   0.7980   0.8002   0.8073   0.8130
  0.8155   0.8169   0.8186   0.8200   0.8233   0.8271   0.8283   0.8305
  0.8314   0.8335   0.8358   0.8400   0.8447   0.8453   0.8473   0.8500
  0.8525   0.8569   0.8583   0.8628   0.8630   0.8638   0.8644   0.8647
  0.8657   0.8697   0.8709   0.8766   0.8773   0.8797   0.8813   0.8824
  0.8830   0.8844   0.8869   0.8881   0.8888   0.8909   0.8949   0.8969
  0.8989   0.9003   0.9031   0.9059   0.9066   0.9075   0.9151   0.9161
  0.9178   0.9200   0.9218   0.9235   0.9238   0.9298   0.9316   0.9348
  0.9373   0.9380   0.9419   0.9444   0.9484   0.9496   0.9504   0.9533
  0.9554   0.9569   0.9629   0.9661   0.9713   0.9720   0.9726   0.9754
  0.9787   0.9811   0.9832   0.9850   0.9869   0.9905   0.9927   0.9942
  0.9946   0.9976   1.0018   1.0041   1.0069   1.0077   1.0124   1.0143
  1.0164   1.0206   1.0222   1.0247   1.0254   1.0279   1.0302   1.0329
  1.0354   1.0360   1.0426   1.0452   1.0462   1.0493   1.0516   1.0553
  1.0577   1.0591   1.0623   1.0630   1.0664   1.0731   1.0773   1.0800
  1.0841   1.0906   1.0926   1.1008   1.1048   1.1064   1.1113   1.1138
  1.1168   1.1243   1.1270   1.1374   1.1391   1.1482   1.1534   1.1571
  1.1602   1.1713   1.1760   1.1786   1.1860   1.1875   1.1955   1.1960
  1.2022   1.2041   1.2081   1.2099   1.2133   1.2219   1.2292   1.2312
  1.2360   1.2382   1.2466   1.2513   1.2542   1.2585   1.2635   1.2671
  1.2713   1.2830   1.2870   1.2908   1.2947   1.2996   1.3143   1.3161
  1.3199   1.3233   1.3278   1.3313   1.3337   1.3353   1.3601   1.3669
  1.3746   1.3762   1.3798   1.3842   1.3897   1.3927   1.3980   1.4087
  1.4119   1.4189   1.4237   1.4271   1.4306   1.4329   1.4366   1.4421
  1.4443   1.4455   1.4492   1.4529   1.4540   1.4551   1.4633   1.4722
  1.4772   1.4778   1.4817   1.4897   1.4909   1.4936   1.4990   1.5030
  1.5039   1.5071   1.5096   1.5131   1.5167   1.5178   1.5211   1.5231
  1.5284   1.5342   1.5378   1.5451   1.5463   1.5501   1.5532   1.5539
  1.5582   1.5681   1.5715   1.5728   1.5788   1.5899   1.5948   1.6135
  1.6321   1.6405   1.6490   1.6601   1.6637   1.6688   1.6691   1.6857
  1.6970   1.6987   1.7007   1.7068   1.7131   1.7175   1.7186   1.7244
  1.7278   1.7298   1.7307   1.7335   1.7496   1.7588   1.7644   1.7662
  1.7664   1.7708   1.7811   1.7844   1.7957   1.7982   1.8029   1.8112
  1.8147   1.8186   1.8197   1.8284   1.8299   1.8363   1.8377   1.8388
  1.8424   1.8445   1.8459   1.8474   1.8515   1.8538   1.8608   1.8810
  1.8854   1.8894   1.8920   1.8941   1.8970   1.8990   1.8994   1.9095
  1.9123   1.9181   1.9195   1.9221   1.9269   1.9306   1.9332   1.9354
  1.9370   1.9442   1.9470   1.9481   1.9525   1.9596   1.9614   1.9643
  1.9667   1.9702   1.9767   1.9782   1.9822   1.9889   1.9924   1.9939
  1.9962   1.9968   1.9987   2.0001   2.0016   2.0066   2.0109   2.0156
  2.0220   2.0237   2.0260   2.0319   2.0374   2.0453   2.0484   2.0642
  2.0676   2.0767   2.0813   2.0834   2.0883   2.0904   2.0910   2.1015
  2.1087   2.1163   2.1184   2.1221   2.1349   2.1371   2.1410   2.1479
  2.1498   2.1537   2.1553   2.1598   2.1602   2.1626   2.1691   2.1712
  2.1723   2.1754   2.1788   2.1835   2.1944   2.1945   2.2010   2.2052
  2.2136   2.2172   2.2259   2.2309   2.2349   2.2423   2.2479   2.2494
  2.2524   2.2592   2.2701   2.2758   2.2904   2.2923   2.2946   2.2953
  2.2978   2.3042   2.3103   2.3122   2.3141   2.3197   2.3223   2.3250
  2.3281   2.3290   2.3302   2.3329   2.3376   2.3455   2.3467   2.3532
  2.3627   2.3652   2.3695   2.3748   2.3796   2.3857   2.3903   2.3988
  2.4057   2.4146   2.4238   2.4263   2.4273   2.4384   2.4431   2.4456
  2.4495   2.4518   2.4594   2.4613   2.4670   2.4707   2.4780   2.4826
  2.4852   2.4930   2.5017   2.5075   2.5180   2.5199   2.5221   2.5271
  2.5308   2.5423   2.5485   2.5656   2.5805   2.5877   2.5888   2.5970
  2.6020   2.6055   2.6062   2.6147   2.6248   2.6386   2.6423   2.6432
  2.6466   2.6608   2.6629   2.6665   2.6683   2.6724   2.6745   2.6961
  2.6988   2.7160   2.7216   2.7270   2.7334   2.7361   2.7371   2.7428
  2.7448   2.7527   2.7560   2.7626   2.7657   2.7695   2.7708   2.7766
  2.7770   2.7854   2.7875   2.7938   2.8051   2.8125   2.8274   2.8387
  2.8491   2.8653   2.8688   2.8781   2.8844   2.8993   2.9081   2.9126
  2.9351   2.9533   2.9564   2.9705   2.9812   3.0022   3.0034   3.0105
  3.0123   3.0549   3.0629   3.0647   3.0891   3.1126   3.1234   3.1821
  3.1987   3.2037   3.2442   3.2522   3.2572   3.3950   3.4187   3.4316
  3.4539   3.4565   3.9098   3.9650   3.9798   3.9906   3.9973   3.9995
  4.0733   4.1044   4.1109   4.1274   4.1288   4.1297   4.1307   4.1415
  4.1488   4.1530   4.1535   4.1554   4.1580   4.1631   4.1682   4.1730
  4.1782   4.1817   4.1966   4.2031   4.2101   4.2162   4.2386   4.2468
  4.2499   4.2525   4.2723   4.2835   4.2896   4.3598   4.3629   4.3652
  4.3749   4.3790   4.3984   4.4036   4.4044   4.4223   4.4407   4.4511
  4.4576   4.4616   4.4638   4.4752   4.4877   4.5119   4.5186   4.5317
  4.5612   4.5622   4.5975   4.6009   4.6551   4.6560   4.7353   4.7438
  4.7589   4.7675   4.8031
 --------------------------------------------------------------

          Ground-State Mulliken Net Atomic Charges

     Atom                 Charge (a.u.)
  ----------------------------------------
      1 C                    -0.522592
      2 C                    -0.318370
      3 C                    -0.319606
      4 C                    -0.322067
      5 C                    -0.317809
      6 C                    -0.399044
      7 C                     0.168622
      8 C                    -0.187659
      9 C                    -0.228635
     10 C                     0.082298
     11 N                    -0.532171
     12 C                     0.305622
     13 C                    -0.196368
     14 C                    -0.213278
     15 C                     0.303634
     16 N                    -0.530466
     17 C                     0.081406
     18 C                    -0.225284
     19 C                    -0.189250
     20 C                     0.168732
     21 C                    -0.410867
     22 C                    -0.322195
     23 C                    -0.325531
     24 C                    -0.319827
     25 C                    -0.322002
     26 C                    -0.526359
     27 C                    -0.281391
     28 C                    -0.232771
     29 C                    -0.132619
     30 C                    -0.129481
     31 C                    -0.249069
     32 C                    -0.151481
     33 C                     0.012402
     34 C                     0.642447
     35 O                    -0.592776
     36 O                    -0.449501
     37 C                     0.252287
     38 N                    -0.473181
     39 S                     0.374309
     40 S                     0.391199
     41 S                     0.303824
     42 C                    -0.196244
     43 C                    -0.214718
     44 S                     0.301052
     45 S                     0.370841
     46 C                    -0.323422
     47 C                     0.048177
     48 C                    -0.189724
     49 C                    -0.200973
     50 C                    -0.186367
     51 C                    -0.201902
     52 C                     0.271548
     53 N                    -0.680242
     54 C                     0.259786
     55 C                    -0.193645
     56 C                    -0.179396
     57 C                    -0.169828
     58 C                    -0.179195
     59 C                    -0.194236
     60 C                     0.261444
     61 C                    -0.194754
     62 C                    -0.179239
     63 C                    -0.169867
     64 C                    -0.179197
     65 C                    -0.195972
     66 H                     0.172353
     67 H                     0.169082
     68 H                     0.173066
     69 H                     0.164722
     70 H                     0.161780
     71 H                     0.158730
     72 H                     0.164101
     73 H                     0.159546
     74 H                     0.168824
     75 H                     0.166113
     76 H                     0.175250
     77 H                     0.178858
     78 H                     0.181031
     79 H                     0.190079
     80 H                     0.200183
     81 H                     0.195205
     82 H                     0.192671
     83 H                     0.179758
     84 H                     0.166969
     85 H                     0.182632
     86 H                     0.177171
     87 H                     0.158265
     88 H                     0.163138
     89 H                     0.160938
     90 H                     0.166958
     91 H                     0.165403
     92 H                     0.172318
     93 H                     0.173292
     94 H                     0.169906
     95 H                     0.204319
     96 H                     0.198487
     97 H                     0.250972
     98 H                     0.447173
     99 H                     0.199952
    100 H                     0.187018
    101 H                     0.193797
[...]
-10.2443 -10.2440 -10.2427 -10.2421 -10.2417 -10.2405 -10.2399 -10.2371
-10.2328 -10.2298 -10.2291 -10.2287 -10.2281 -10.2262 -10.2244 -10.2203
-10.2164  -8.0634  -8.0552  -8.0508  -8.0453  -8.0396  -6.0007  -5.9969
 -5.9936  -5.9926  -5.9889  -5.9881  -5.9853  -5.9848  -5.9826  -5.9805
 -5.9794  -5.9769  -5.9750  -5.9732  -5.9699  -1.1391  -1.0523  -1.0153
 -1.0068  -1.0066  -0.9552  -0.9494  -0.9316  -0.9259  -0.8927  -0.8883
 -0.8865  -0.8699  -0.8692  -0.8506  -0.8463  -0.8402  -0.8299  -0.8228
 -0.8128  -0.8103  -0.8054  -0.7899  -0.7893  -0.7865  -0.7766  -0.7752
 -0.7727  -0.7714  -0.7694  -0.7632  -0.7629  -0.7438  -0.7311  -0.7267
 -0.7178  -0.7011  -0.6847  -0.6738  -0.6684  -0.6559  -0.6552  -0.6472
 -0.6395  -0.6325  -0.6322  -0.6296  -0.6260  -0.6250  -0.6222  -0.6168
 -0.6116  -0.6060  -0.5950  -0.5833  -0.5789  -0.5736  -0.5692  -0.5682
 -0.5605  -0.5571  -0.5557  -0.5532  -0.5419  -0.5358  -0.5211  -0.5147
 -0.5128  -0.5033  -0.4957  -0.4890  -0.4879  -0.4807  -0.4787  -0.4780
 -0.4757  -0.4740  -0.4738  -0.4732  -0.4713  -0.4688  -0.4663  -0.4655
 -0.4631  -0.4604  -0.4593  -0.4567  -0.4540  -0.4498  -0.4481  -0.4459
 -0.4453  -0.4417  -0.4404  -0.4383  -0.4374  -0.4370  -0.4322  -0.4293
 -0.4251  -0.4219  -0.4199  -0.4170  -0.4120  -0.4098  -0.4092  -0.4035
 -0.4016  -0.3992  -0.3973  -0.3956  -0.3942  -0.3933  -0.3906  -0.3891
 -0.3880  -0.3871  -0.3848  -0.3794  -0.3762  -0.3756  -0.3740  -0.3722
 -0.3706  -0.3680  -0.3668  -0.3610  -0.3594  -0.3582  -0.3573  -0.3566
 -0.3540  -0.3513  -0.3502  -0.3443  -0.3405  -0.3399  -0.3321  -0.3309
 -0.3291  -0.3280  -0.3260  -0.3254  -0.3212  -0.3196  -0.3061  -0.3040
 -0.2969  -0.2960  -0.2936  -0.2918  -0.2816  -0.2764  -0.2761  -0.2756
 -0.2668  -0.2653  -0.2627  -0.2601  -0.2400  -0.2348  -0.2155  -0.1960
 -- Virtual --
 -0.1081  -0.0759  -0.0544  -0.0214  -0.0173  -0.0128  -0.0124  -0.0120
 -0.0036   0.0023   0.0031   0.0069   0.0139   0.0171   0.0204   0.0266
  0.0282   0.0350   0.0379   0.0417   0.0522   0.0590   0.0722   0.0789
  0.0830   0.0859   0.0895   0.0965   0.0972   0.0990   0.1012   0.1020
  0.1029   0.1092   0.1151   0.1205   0.1221   0.1271   0.1281   0.1310
  0.1332   0.1355   0.1456   0.1465   0.1488   0.1509   0.1517   0.1538
  0.1542   0.1574   0.1580   0.1594   0.1620   0.1632   0.1637   0.1643
  0.1660   0.1685   0.1695   0.1701   0.1738   0.1762   0.1795   0.1803
  0.1827   0.1849   0.1880   0.1889   0.1894   0.1899   0.1934   0.1953
  0.1959   0.1967   0.1973   0.1979   0.1990   0.2041   0.2055   0.2135
  0.2142   0.2152   0.2161   0.2165   0.2218   0.2234   0.2290   0.2307
  0.2325   0.2349   0.2363   0.2378   0.2442   0.2493   0.2505   0.2533
  0.2555   0.2596   0.2613   0.2642   0.2654   0.2701   0.2763   0.2791
  0.2826   0.2838   0.2862   0.2881   0.2898   0.2935   0.2961   0.2980
  0.3034   0.3041   0.3050   0.3061   0.3084   0.3099   0.3110   0.3123
  0.3248   0.3262   0.3351   0.3372   0.3408   0.3533   0.3543   0.3636
  0.3652   0.3668   0.3672   0.3685   0.3722   0.3749   0.3835   0.3846
  0.3880   0.3912   0.3937   0.3942   0.3983   0.4013   0.4116   0.4142
  0.4191   0.4288   0.4372   0.4422   0.4502   0.4558   0.4608   0.4628
  0.4641   0.4671   0.4770   0.4785   0.4935   0.4964   0.4984   0.5043
  0.5093   0.5100   0.5137   0.5165   0.5169   0.5173   0.5211   0.5266
  0.5274   0.5304   0.5326   0.5347   0.5355   0.5380   0.5389   0.5407
  0.5414   0.5456   0.5492   0.5501   0.5533   0.5543   0.5569   0.5571
  0.5596   0.5609   0.5620   0.5631   0.5666   0.5680   0.5746   0.5772
  0.5787   0.5816   0.5836   0.5852   0.5864   0.5884   0.5891   0.5922
  0.5928   0.5931   0.5961   0.5968   0.5995   0.6000   0.6029   0.6041
  0.6054   0.6083   0.6092   0.6107   0.6123   0.6141   0.6193   0.6203
  0.6215   0.6236   0.6248   0.6269   0.6287   0.6287   0.6345   0.6350
  0.6358   0.6390   0.6436   0.6452   0.6487   0.6496   0.6550   0.6562
  0.6594   0.6614   0.6673   0.6700   0.6725   0.6735   0.6803   0.6823
  0.6839   0.6843   0.6896   0.6902   0.6928   0.7003   0.7033   0.7054
  0.7087   0.7115   0.7136   0.7168   0.7206   0.7257   0.7271   0.7311
  0.7357   0.7367   0.7386   0.7414   0.7453   0.7491   0.7511   0.7567
  0.7592   0.7615   0.7654   0.7680   0.7711   0.7767   0.7786   0.7813
  0.7846   0.7883   0.7941   0.7984   0.8041   0.8072   0.8083   0.8120
  0.8133   0.8190   0.8223   0.8237   0.8253   0.8258   0.8276   0.8308
  0.8343   0.8379   0.8385   0.8386   0.8448   0.8464   0.8485   0.8535
  0.8549   0.8567   0.8585   0.8607   0.8628   0.8636   0.8664   0.8674
  0.8678   0.8682   0.8698   0.8720   0.8769   0.8781   0.8807   0.8814
  0.8823   0.8860   0.8877   0.8894   0.8932   0.8943   0.8953   0.8986
  0.8999   0.9033   0.9060   0.9070   0.9119   0.9139   0.9153   0.9168
  0.9184   0.9222   0.9240   0.9257   0.9275   0.9322   0.9364   0.9371
  0.9386   0.9417   0.9426   0.9449   0.9478   0.9488   0.9545   0.9616
  0.9624   0.9650   0.9682   0.9698   0.9711   0.9728   0.9765   0.9781
  0.9803   0.9805   0.9831   0.9874   0.9876   0.9891   0.9963   0.9974
  0.9985   0.9994   1.0008   1.0028   1.0070   1.0102   1.0131   1.0169
  1.0191   1.0202   1.0221   1.0229   1.0252   1.0296   1.0312   1.0334
  1.0366   1.0390   1.0451   1.0458   1.0472   1.0522   1.0576   1.0627
  1.0666   1.0680   1.0684   1.0706   1.0726   1.0747   1.0806   1.0829
  1.0875   1.0932   1.0946   1.1014   1.1087   1.1117   1.1144   1.1152
  1.1253   1.1279   1.1344   1.1413   1.1460   1.1559   1.1570   1.1695
  1.1724   1.1749   1.1820   1.1867   1.1912   1.1953   1.1998   1.2001
  1.2019   1.2065   1.2139   1.2154   1.2189   1.2270   1.2282   1.2332
  1.2428   1.2443   1.2508   1.2574   1.2617   1.2623   1.2732   1.2743
  1.2748   1.2810   1.2857   1.2900   1.2928   1.2973   1.3126   1.3139
  1.3193   1.3234   1.3261   1.3268   1.3314   1.3341   1.3531   1.3547
  1.3655   1.3698   1.3787   1.3852   1.3894   1.3961   1.3993   1.4048
  1.4086   1.4106   1.4199   1.4221   1.4269   1.4278   1.4290   1.4409
  1.4410   1.4440   1.4464   1.4515   1.4566   1.4589   1.4648   1.4665
  1.4739   1.4765   1.4785   1.4812   1.4880   1.4927   1.4981   1.4999
  1.5047   1.5069   1.5092   1.5108   1.5131   1.5158   1.5183   1.5245
  1.5337   1.5353   1.5368   1.5402   1.5459   1.5484   1.5540   1.5590
  1.5654   1.5701   1.5709   1.5819   1.5849   1.6081   1.6099   1.6170
  1.6398   1.6458   1.6525   1.6655   1.6717   1.6781   1.6807   1.6836
  1.6845   1.6922   1.6964   1.7028   1.7056   1.7113   1.7165   1.7232
  1.7255   1.7282   1.7368   1.7382   1.7485   1.7510   1.7594   1.7658
  1.7683   1.7750   1.7803   1.7834   1.7954   1.7966   1.8038   1.8085
  1.8137   1.8222   1.8244   1.8281   1.8368   1.8382   1.8395   1.8402
  1.8417   1.8421   1.8454   1.8494   1.8545   1.8629   1.8672   1.8800
  1.8815   1.8856   1.8915   1.8967   1.8992   1.9022   1.9028   1.9078
  1.9096   1.9126   1.9176   1.9208   1.9238   1.9261   1.9291   1.9329
  1.9367   1.9430   1.9477   1.9510   1.9514   1.9572   1.9590   1.9609
  1.9644   1.9675   1.9754   1.9769   1.9771   1.9813   1.9853   1.9896
  1.9907   1.9923   1.9975   1.9987   2.0002   2.0066   2.0091   2.0106
  2.0180   2.0221   2.0264   2.0330   2.0415   2.0492   2.0604   2.0656
  2.0676   2.0685   2.0759   2.0811   2.0825   2.0864   2.0899   2.0902
  2.0935   2.1002   2.1104   2.1150   2.1203   2.1319   2.1332   2.1452
  2.1477   2.1512   2.1533   2.1542   2.1605   2.1614   2.1670   2.1689
  2.1698   2.1721   2.1746   2.1785   2.1829   2.1994   2.2023   2.2093
  2.2183   2.2260   2.2334   2.2433   2.2467   2.2514   2.2534   2.2541
  2.2565   2.2569   2.2608   2.2701   2.2772   2.2857   2.2881   2.2898
  2.2925   2.2973   2.3057   2.3074   2.3115   2.3171   2.3199   2.3238
  2.3242   2.3273   2.3282   2.3336   2.3354   2.3413   2.3451   2.3516
  2.3595   2.3629   2.3647   2.3730   2.3775   2.3989   2.4037   2.4062
  2.4148   2.4179   2.4209   2.4270   2.4308   2.4344   2.4422   2.4465
  2.4527   2.4568   2.4589   2.4637   2.4662   2.4686   2.4723   2.4743
  2.4833   2.4947   2.4985   2.5090   2.5115   2.5157   2.5302   2.5315
  2.5361   2.5418   2.5485   2.5683   2.5832   2.5860   2.5890   2.5942
  2.5984   2.6020   2.6052   2.6119   2.6230   2.6427   2.6475   2.6518
  2.6566   2.6576   2.6614   2.6625   2.6649   2.6730   2.6918   2.7048
  2.7113   2.7186   2.7215   2.7346   2.7365   2.7390   2.7406   2.7426
  2.7472   2.7515   2.7546   2.7638   2.7654   2.7677   2.7766   2.7769
  2.7884   2.7927   2.7968   2.8111   2.8225   2.8257   2.8379   2.8389
  2.8572   2.8624   2.8626   2.8726   2.8814   2.9138   2.9160   2.9272
  2.9445   2.9555   2.9601   2.9720   2.9882   3.0079   3.0101   3.0209
  3.0437   3.0615   3.0768   3.0826   3.1011   3.1166   3.1308   3.1849
  3.2037   3.2362   3.2419   3.2587   3.2710   3.4087   3.4174   3.4308
  3.4522   3.4582   3.9259   3.9711   3.9748   3.9854   3.9898   3.9965
  4.0857   4.0994   4.1065   4.1142   4.1265   4.1282   4.1310   4.1322
  4.1406   4.1465   4.1480   4.1509   4.1522   4.1575   4.1617   4.1707
  4.1765   4.1862   4.1979   4.1998   4.2120   4.2195   4.2232   4.2285
  4.2419   4.2507   4.2636   4.2722   4.2836   4.3537   4.3572   4.3601
  4.3693   4.3761   4.3889   4.4040   4.4248   4.4319   4.4374   4.4428
  4.4535   4.4613   4.4676   4.4773   4.4975   4.5238   4.5241   4.5290
  4.5558   4.5609   4.5911   4.6039   4.6511   4.6574   4.7382   4.7524
  4.7588   4.7593   4.8040
 --------------------------------------------------------------

          Ground-State Mulliken Net Atomic Charges

     Atom                 Charge (a.u.)
  ----------------------------------------
      1 C                    -0.523243
      2 C                    -0.318284
      3 C                    -0.319433
      4 C                    -0.321999
      5 C                    -0.317322
      6 C                    -0.401037
      7 C                     0.152254
      8 C                    -0.180062
      9 C                    -0.230184
     10 C                     0.089350
     11 N                    -0.530921
     12 C                     0.304818
     13 C                    -0.198047
     14 C                    -0.207829
     15 C                     0.301536
     16 N                    -0.527857
     17 C                     0.086352
     18 C                    -0.224353
     19 C                    -0.184715
     20 C                     0.155101
     21 C                    -0.433334
     22 C                    -0.322679
     23 C                    -0.330556
     24 C                    -0.319781
     25 C                    -0.324931
     26 C                    -0.523787
     27 C                    -0.264477
     28 C                    -0.187672
     29 C                    -0.177852
     30 C                    -0.141010
     31 C                    -0.215664
     32 C                    -0.130684
     33 C                    -0.031477
     34 C                     0.641584
     35 O                    -0.598359
     36 O                    -0.461778
     37 C                     0.229185
     38 N                    -0.508821
     39 S                     0.404483
     40 S                     0.384736
     41 S                     0.298801
     42 C                    -0.198480
     43 C                    -0.209995
     44 S                     0.290925
     45 S                     0.364748
     46 C                    -0.316322
     47 C                     0.084105
     48 C                    -0.210456
     49 C                    -0.208033
     50 C                    -0.197802
     51 C                    -0.210416
     52 C                     0.288761
     53 N                    -0.674541
     54 C                     0.234817
     55 C                    -0.182202
     56 C                    -0.182494
     57 C                    -0.166409
     58 C                    -0.182447
     59 C                    -0.183389
     60 C                     0.254291
     61 C                    -0.190536
     62 C                    -0.181116
     63 C                    -0.167897
     64 C                    -0.181581
     65 C                    -0.191820
     66 H                     0.173183
     67 H                     0.169238
     68 H                     0.173340
     69 H                     0.165579
     70 H                     0.161749
     71 H                     0.157722
     72 H                     0.163921
     73 H                     0.159584
     74 H                     0.170043
     75 H                     0.165262
     76 H                     0.176827
     77 H                     0.180005
     78 H                     0.180577
     79 H                     0.191343
     80 H                     0.202793
     81 H                     0.201800
     82 H                     0.202724
     83 H                     0.186565
     84 H                     0.181944
     85 H                     0.190427
     86 H                     0.172940
     87 H                     0.157733
     88 H                     0.162284
     89 H                     0.164836
     90 H                     0.167914
     91 H                     0.172475
     92 H                     0.168545
     93 H                     0.173762
     94 H                     0.174307
     95 H                     0.212904
     96 H                     0.205647
     97 H                     0.237023
     98 H                     0.443996
     99 H                     0.203714
    100 H                     0.189403
    101 H                     0.195018
    102 H                     0.183566
    103 H                     0.193618
    104 H                     0.189196
    105 H                     0.175314
    106 H                     0.171648
    107 H                     0.174085
    108 H                     0.186578
    109 H                     0.188234
    110 H                     0.173951
    111 H                     0.170821
    112 H                     0.174745
    113 H                     0.189353
  ----------------------------------------
  Sum of atomic charges =     0.000000

 -----------------------------------------------------------------
                    Cartesian Multipole Moments
 -----------------------------------------------------------------
    Charge (ESU x 10^10)
                -0.0000
    Dipole Moment (Debye)
         X     -10.2596      Y       0.1320      Z      -0.6510
       Tot      10.2810
    Quadrupole Moments (Debye-Ang)
        XX    -488.4468     XY      18.9848     YY    -385.6695
        XZ     -11.1221     YZ      -1.7367     ZZ    -414.2960
    Octopole Moments (Debye-Ang^2)
       XXX   -3701.1677    XXY     324.2901    XYY    -164.2146
       YYY      15.1352    XXZ    -225.0860    XYZ      20.5893
       YYZ     -44.9340    XZZ      -3.3778    YZZ       2.9079
       ZZZ    -108.8903
    Hexadecapole Moments (Debye-Ang^3)
      XXXX -253569.8175   XXXY    7032.7542   XXYY  -38041.7740
      XYYY    -584.5427   YYYY  -17505.5920   XXXZ   -2229.4710
      XXYZ     633.8234   XYYZ    -657.1678   YYYZ     982.5846
      XXZZ  -36068.3262   XYZZ      96.0725   YYZZ   -3769.8699
      XZZZ   -1106.3443   YZZZ    1019.9577   ZZZZ   -4130.6757
 -----------------------------------------------------------------
Archival summary:
1\1\c09b01\OPT\ProcedureUnspecified\6-31G*\5245448\zl21a\FriFeb1221:23:542021FriFeb1221:23:542021\0\\#,OPT,ProcedureUnspecified,6-31G*,\\0,1\S\C,1,1.73072\C,2,1.37602,1,110.808\H,3,1.08683,2,123.046,1,-179.507,0\C,3,1.41766,2,114.058,1,-0.25009,0\C,5,1.3846,3,111.557,2,0.0600854,0\C,2,1.43841,1,119.881,3,179.46,0\N,7,1.29906,2,123.705,1,1.08421,0\C,8,1.37128,7,111.375,2,-179.922,0\C,9,1.3968,8,124.321,7,179.849,0\H,10,1.08459,9,119.764,8,0.0823953,0\C,10,1.3849,9,117.212,8,-179.881,0\C,12,1.4238,10,122.474,9,-0.0934312,0\N,13,1.3714,12,115.279,10,179.985,0\C,14,1.29861,13,111.268,12,-0.0263224,0\C,13,1.39806,12,120.308,10,0.109158,0\H,16,1.08467,13,119.782,12,179.896,0\C,16,1.38352,13,117.217,12,-0.0502713,0\C,15,1.44049,14,123.155,13,179.946,0\C,19,1.37617,15,129.407,14,178.267,0\H,20,1.08585,19,123.031,15,-1.37528,0\C,20,1.41523,19,114.343,15,179.548,0\C,22,1.39292,20,111.228,19,0.483051,0\C,23,1.44277,22,130.943,20,177.108,0\C,24,1.39092,23,126.425,22,-158.563,0\H,25,1.08449,24,122.745,23,2.79259,0\C,25,1.39657,24,113.265,23,-178.674,0\H,27,1.08525,25,124.232,24,-179.223,0\C,27,1.38931,25,113.7,24,-0.063997,0\C,29,1.41889,27,124.272,25,-179.365,0\H,30,1.08975,29,115.493,27,-1.0392,0\C,30,1.36385,29,130.798,27,179.151,0\C,32,1.41868,30,124.249,29,-0.187235,0\N,33,1.16596,32,175.376,30,-179.734,0\C,6,1.46741,5,129.114,3,-179.701,0\C,35,1.40153,6,121.179,5,128.271,0\H,36,1.08715,35,119.328,6,-2.01851,0\C,36,1.38628,35,121.38,6,-179.921,0\H,38,1.08558,36,119.779,35,178.355,0\C,35,1.40196,6,121.139,5,-53.0105,0\H,40,1.08664,35,119.326,6,-2.02204,0\C,40,1.3856,35,121.352,6,-179.35,0\H,42,1.08556,40,119.849,35,178.632,0\C,38,1.4024,36,120.601,35,-1.03588,0\N,44,1.40435,38,121.112,36,179.89,0\C,45,1.41434,44,120.886,38,33.5117,0\C,46,1.3997,45,120.101,44,-139.16,0\H,47,1.08601,46,119.314,45,0.735421,0\C,47,1.38974,46,120.261,45,-179.14,0\H,49,1.08687,47,119.284,46,179.96,0\C,49,1.39256,47,120.572,46,-0.898147,0\H,51,1.08616,49,120.395,47,-179.505,0\C,51,1.39289,49,119.235,47,0.573136,0\H,53,1.08688,51,120.114,49,179.41,0\C,53,1.38996,51,120.627,49,0.369183,0\H,55,1.08611,53,120.353,51,178.999,0\C,45,1.41648,44,119.991,38,-146.062,0\C,57,1.399,45,120.259,44,-134.418,0\H,58,1.08617,57,119.325,45,0.374,0\C,58,1.39007,57,120.172,45,-179.533,0\H,60,1.0868,58,119.375,57,-179.947,0\C,60,1.39271,58,120.503,57,-0.755068,0\H,62,1.08628,60,120.319,58,-179.599,0\C,62,1.39277,60,119.385,58,0.492996,0\H,64,1.08688,62,120.099,60,179.418,0\C,64,1.39006,62,120.508,60,0.35173,0\H,66,1.08627,64,120.479,62,179.132,0\C,32,1.4973,30,117.628,29,179.799,0\O,68,1.20575,32,122.401,30,-0.12775,0\O,68,1.34158,32,116.565,30,179.898,0\H,70,0.971394,68,111.047,32,-0.0941828,0\C,22,1.50269,20,122.153,19,179.674,0\H,72,1.09624,22,109.895,20,-146.127,0\H,72,1.09808,22,108.155,20,-30.7978,0\C,5,1.50364,3,122.592,2,-174.106,0\H,75,1.09512,5,110.431,3,-161.638,0\H,75,1.09709,5,109.169,3,-44.7381,0\C,75,1.5348,5,111.693,3,77.168,0\H,78,1.09757,75,108.038,5,55.0436,0\H,78,1.09936,75,109.314,5,-59.8925,0\C,78,1.52803,75,114.39,5,176.751,0\H,81,1.0975,78,107.909,75,-172.711,0\H,81,1.10067,78,109.241,75,-57.9411,0\C,81,1.52654,78,114.744,75,65.1652,0\H,84,1.09826,81,109.635,78,-60.0259,0\H,84,1.10082,81,109.178,78,55.7888,0\C,84,1.5298,81,114.159,78,178.175,0\H,87,1.09799,84,108.576,81,174.343,0\H,87,1.09929,84,109.167,81,59.2906,0\C,87,1.52519,84,114.389,81,-63.7593,0\H,90,1.09538,87,112.004,84,63.967,0\H,90,1.09545,87,111.08,84,-176.038,0\H,90,1.09701,87,111.053,84,-56.3169,0\C,72,1.53772,22,114.481,20,90.452,0\H,94,1.09705,72,109.551,22,56.0723,0\H,94,1.09856,72,107.877,22,170.96,0\C,94,1.52492,72,113.897,22,-67.5813,0\H,97,1.09858,94,109.896,72,59.9341,0\H,97,1.10004,94,108.724,72,-55.6036,0\C,97,1.53025,94,113.703,72,-176.72,0\H,100,1.09922,97,108.84,94,58.669,0\H,100,1.09925,97,108.538,94,173.718,0\C,100,1.53057,97,115.392,94,-64.1,0\H,103,1.0979,100,108.215,97,176.568,0\H,103,1.09848,100,110.035,97,61.6861,0\C,103,1.52436,100,113.997,97,-61.8644,0\H,106,1.09534,103,111.084,100,-176.879,0\H,106,1.09591,103,111.969,100,63.1341,0\H,106,1.09706,103,111.097,100,-57.1009,0\S,19,1.7255,15,119.466,14,-2.30858,0\S,24,1.73388,23,122.971,22,23.3449,0\S,12,1.74106,10,128.492,9,179.996,0\S,18,1.7412,16,128.536,13,179.807,0\\\@

 Total job time:  39861.73s(wall), 306343.57s(cpu) 
 Fri Feb 12 21:23:54 2021

        *************************************************************
        *                                                           *
        *  Thank you very much for using Q-Chem.  Have a nice day.  *
        *                                                           *
        *************************************************************


