                  Welcome to Q-Chem
     A Quantum Leap Into The Future Of Chemistry


 Q-Chem 5.3 (devel), Q-Chem, Inc., Pleasanton, CA (2020)

 Yihan Shao,  Zhengting Gan,  E. Epifanovsky,  A. T. B. Gilbert,  M. Wormit,  
 J. Kussmann,  A. W. Lange,  A. Behn,  Jia Deng,  Xintian Feng,  D. Ghosh,  
 M. Goldey,  P. R. Horn,  L. D. Jacobson,  I. Kaliman,  T. Kus,  A. Landau,  
 Jie Liu,  E. I. Proynov,  R. M. Richard,  R. P. Steele,  E. J. Sundstrom,  
 H. L. Woodcock III,  P. M. Zimmerman,  D. Zuev,  B. Alam,  B. Albrecht,  
 A. Aldossary,  E. Alguire,  S. A. Baeppler,  D. Barton,  Z. Benda,  
 Y. A. Bernard,  E. J. Berquist,  K. B. Bravaya,  H. Burton,  K. Carter-Fenk,  
 D. Casanova,  Chun-Min Chang,  Yunqing Chen,  A. Chien,  K. D. Closser,  
 M. P. Coons,  S. Coriani,  S. Dasgupta,  A. L. Dempwolff,  M. Diedenhofen,  
 Hainam Do,  R. G. Edgar,  Po-Tung Fang,  S. Faraji,  S. Fatehi,  
 Qingguo Feng,  J. Fosso-Tande,  J. Gayvert,  Qinghui Ge,  A. Ghysels,  
 G. Gidofalvi,  J. Gomes,  J. Gonthier,  S. Gulania,  A. Gunina,  D. Hait,  
 M. W. D. Hanson-Heine,  S. Hammes-Schiffer,  P. H. P. Harbach,  
 A. W. Hauser,  M. F. Herbst,  J. E. Herr,  E. G. Hohenstein,  Z. C. Holden,  
 S. Houck,  Kerwin Hui,  B. C. Huynh,  M. Ivanov,  T.-C. Jagau,  Hyunjun Ji,  
 B. Kaduk,  K. Khistyaev,  Jaehoon Kim,  P. Klunzinger,  K. Koh,  
 D. Kosenkov,  L. Koulias,  T. Kowalczyk,  C. M. Krauter,  A. Kunitsa,  
 Ka Un Lao,  A. Laurent,  K. V. Lawler,  Joonho Lee,  D. Lefrancois,  
 S. Lehtola,  D. S. Levine,  Yi-Pei Li,  You-Sheng Lin,  Fenglai Liu,  
 Kuan-Yu Liu,  E. Livshits,  M. Loipersberger,  A. Luenser,  P. Manohar,  
 E. Mansoor,  S. F. Manzer,  Shan-Ping Mao,  Yuezhi Mao,  N. Mardirossian,  
 A. V. Marenich,  T. Markovich,  L. A. Martinez-Martinez,  S. A. Maurer,  
 N. J. Mayhall,  S. C. McKenzie,  J.-M. Mewes,  P. Morgante,  A. F. Morrison,  
 J. W. Mullinax,  K. Nanda,  T. S. Nguyen-Beck,  R. Olivares-Amaya,  
 K. J. Oosterbaan,  J. A. Parkhill,  S. K. Paul,  F. Pavosevic,  Zheng Pei,  
 T. M. Perrine,  F. Plasser,  P. Pokhilko,  S. Prager,  A. Prociuk,  
 E. Ramos,  B. Rana,  D. R. Rehn,  F. Rob,  E. Rossomme,  M. Scheurer,  
 M. Schneider,  N. Sergueev,  S. M. Sharada,  S. Sharma,  W. Skomorowski,  
 D. W. Small,  T. Stauch,  C. J. Stein,  T. Stein,  Yu-Chuan Su,  
 S. P. Veccham,  Zhen Tao,  A. J. W. Thom,  A. Tkatchenko,  T. Tsuchimochi,  
 N. M. Tubman,  L. Vogt,  M. L. Vidal,  O. Vydrov,  M. A. Watson,  J. Wenzel,  
 M. de Wergifosse,  T. A. Wesolowski,  A. White,  J. Witte,  A. Yamada,  
 Jun Yang,  K. Yao,  S. Yeganeh,  S. R. Yost,  Zhi-Qiang You,  A. Zech,  
 Igor Ying Zhang,  Xing Zhang,  Yan Zhao,  Ying Zhu,  B. R. Brooks,  
 G. K. L. Chan,  C. J. Cramer,  M. S. Gordon,  W. J. Hehre,  A. Klamt,  
 M. W. Schmidt,  C. D. Sherrill,  D. G. Truhlar,  A. Aspuru-Guzik,  R. Baer,  
 A. T. Bell,  N. A. Besley,  Jeng-Da Chai,  A. E. DePrince, III,  
 R. A. DiStasio Jr.,  A. Dreuw,  B. D. Dunietz,  T. R. Furlani,  
 Chao-Ping Hsu,  Yousung Jung,  Jing Kong,  D. S. Lambrecht,  WanZhen Liang,  
 C. Ochsenfeld,  V. A. Rassolov,  L. V. Slipchenko,  J. E. Subotnik,  
 T. Van Voorhis,  J. M. Herbert,  A. I. Krylov,  P. M. W. Gill,  M. Head-Gordon

 Contributors to earlier versions of Q-Chem not listed above: 
 R. D. Adamson,  B. Austin,  J. Baker,  G. J. O. Beran,  K. Brandhorst,  
 S. T. Brown,  E. F. C. Byrd,  A. K. Chakraborty,  C.-L. Cheng,  
 Siu Hung Chien,  D. M. Chipman,  D. L. Crittenden,  H. Dachsel,  
 R. J. Doerksen,  A. D. Dutoi,  L. Fusti-Molnar,  W. A. Goddard III,  
 A. Golubeva-Zadorozhnaya,  S. R. Gwaltney,  G. Hawkins,  A. Heyden,  
 S. Hirata,  G. Kedziora,  F. J. Keil,  C. Kelley,  Jihan Kim,  R. A. King,  
 R. Z. Khaliullin,  P. P. Korambath,  W. Kurlancheek,  A. M. Lee,  M. S. Lee,  
 S. V. Levchenko,  Ching Yeh Lin,  D. Liotard,  R. C. Lochan,  I. Lotan,  
 P. E. Maslen,  N. Nair,  D. P. O'Neill,  D. Neuhauser,  E. Neuscamman,  
 C. M. Oana,  R. Olson,  B. Peters,  R. Peverati,  P. A. Pieniazek,  
 Y. M. Rhee,  J. Ritchie,  M. A. Rohrdanz,  E. Rosta,  N. J. Russ,  
 H. F. Schaefer III,  N. E. Schultz,  N. Shenvi,  A. C. Simmonett,  A. Sodt,  
 D. Stuck,  K. S. Thanthiriwatte,  V. Vanovschi,  Tao Wang,  A. Warshel,  
 C. F. Williams,  Q. Wu,  X. Xu,  W. Zhang

 Please cite Q-Chem as follows:
 Y. Shao et al., Mol. Phys. 113, 184-215 (2015)
 DOI: 10.1080/00268976.2014.952696

 Q-Chem 5.3.1 for Intel X86 EM64T Linux

 Parts of Q-Chem use Armadillo 9.800.1 (Horizon Scraper).
 http://arma.sourceforge.net/

 Q-Chem begins on Fri Feb 12 10:19:31 2021  

Host: c34b03
0

     Scratch files written to /tmp/zl21a/DSSC4//
Processing $rem in /home/zl53a/Q-Chem_5.3/development/config/preferences:
Processing $rem in /home/zl21a/.qchemrc:

Checking the input file for inconsistencies... 	...done.

--------------------------------------------------------------
User input:
--------------------------------------------------------------
$molecule
0 1
C         11.97840       -1.14300       -1.35160
C         11.53410        0.26740       -1.02620
C         12.57730        1.23530       -1.49770
O         10.29940        0.45630       -1.60900
B          9.30590        0.04100       -0.62390
O         10.02940       -0.24520        0.60740
C         11.22550        0.41250        0.44770
C         11.03010        1.86150        0.78430
C         12.33200       -0.17940        1.30460
C          7.75990        0.32720       -0.78800
C          7.16990        1.30530       -1.54340
C          5.83740        1.37120       -1.54120
C          5.16640        0.45310       -0.78180
S          6.42330       -0.47400       -0.09440
C          3.70060        0.32310       -0.61850
C          3.17710       -0.60060        0.14030
C          1.71220       -0.73000        0.30300
S          0.46340        0.20800       -0.39560
C          1.02590       -1.63820        1.05620
C         -0.30700       -1.56310        1.05000
C         -0.88670       -0.58420        0.29160
C         -2.31030       -0.26110        0.09110
C         -3.21790       -0.96800        0.69230
C         -4.65370       -0.73550        0.56460
C         -5.18430        0.26650       -0.21460
C         -6.56420        0.46490       -0.31730
C         -5.55390       -1.53360        1.23880
C         -6.93650       -1.34920        1.14740
C         -7.44000       -0.34210        0.36300
N         -8.82830       -0.13160        0.25070
C         -9.34920        1.18390        0.33460
C        -10.31330        1.62620       -0.56780
C        -10.80140        2.90690       -0.46430
C        -10.38260        3.79410        0.49990
C         -9.42760        3.36560        1.39880
C         -8.93400        2.08140        1.30000
C         -9.67760       -1.25010        0.05510
C         -9.39550       -2.25240       -0.84640
C        -10.26150       -3.32010       -0.99460
C        -11.42820       -3.41810       -0.25140
C        -11.71050       -2.41920        0.64790
C        -10.83670       -1.36020        0.78460
H         11.25660       -1.86360       -0.88580
H         11.84660       -1.26440       -2.46100
H         13.02050       -1.34680       -1.10950
H         12.44160        1.50150       -2.57320
H         12.56300        2.20320       -0.94010
H         13.57690        0.74870       -1.36410
H         11.97020        2.31520        1.17870
H         10.69220        2.38710       -0.12930
H         10.21630        1.91610        1.56410
H         11.89800       -0.38780        2.30440
H         13.14170        0.58290        1.34400
H         12.67570       -1.13110        0.89720
H          7.82250        2.00030       -2.12390
H          5.26470        2.12840       -2.12130
H          3.06110        1.00810       -1.13950
H          3.78750       -1.28350        0.66090
H          1.59090       -2.39860        1.64070
H         -0.96530       -2.25170        1.62670
H         -2.55950        0.54850       -0.54540
H         -2.90320       -1.78790        1.33440
H         -4.53170        0.91640       -0.76030
H         -6.89940        1.27990       -0.95480
H         -5.16330       -2.32660        1.85660
H         -7.57970       -2.02270        1.71150
H        -10.65750        0.94320       -1.33560
H        -11.55240        3.23580       -1.17550
H        -10.77230        4.79830        0.57280
H         -9.05760        4.01930        2.18180
H         -8.18240        1.77410        2.02350
H         -8.49600       -2.20870       -1.44200
H        -10.06810       -4.12200       -1.69350
H        -12.08390       -4.26880       -0.39350
H        -12.62140       -2.49980        1.22530
H        -11.07980       -0.59490        1.49210
$end

$rem
jobtype opt
method PBE0
basis 6-31g*
$end
--------------------------------------------------------------
 ----------------------------------------------------------------
             Standard Nuclear Orientation (Angstroms)
    I     Atom           X                Y                Z
 ----------------------------------------------------------------
    1      C      12.2024513495    -1.3715217348    -0.9394136246
    2      C      11.7817518036     0.0421346120    -0.5972098326
    3      C      12.8639571397     0.9935700775    -1.0107446746
    4      O      10.5729179609     0.2748409849    -1.2172030783
    5      B       9.5361122910    -0.1368396006    -0.2761975265
    6      O      10.2094109385    -0.4681602021     0.9721445621
    7      C      11.4260243469     0.1625459703     0.8682690179
    8      C      11.2545574411     1.6082638001     1.2310096647
    9      C      12.4874546147    -0.4757274071     1.7485748466
   10      C       8.0041608878     0.1917562866    -0.4862091713
   11      C       7.4646925192     1.2007709218    -1.2387197129
   12      C       6.1349202655     1.3001572222    -1.2803372165
   13      C       5.4158459718     0.3827912418    -0.5653485535
   14      S       6.6252129727    -0.5905600029     0.1430648792
   15      C       3.9425393948     0.2862059651    -0.4550057037
   16      C       3.3707168735    -0.6404598692     0.2642722785
   17      C       1.8983448857    -0.7364549738     0.3740599347
   18      S       0.6977240188     0.2478321760    -0.3450198527
   19      C       1.1644404352    -1.6434047957     1.0825593688
   20      C      -0.1652163789    -1.5346290061     1.0327452705
   21      C      -0.6942707362    -0.5250084078     0.2776058168
   22      C      -2.1017722738    -0.1618172003     0.0362297854
   23      C      -3.0466072844    -0.8586644807     0.5899241781
   24      C      -4.4710273545    -0.5873147294     0.4188044646
   25      C      -4.9497424808     0.4446129054    -0.3549204119
   26      C      -6.3200097446     0.6799240850    -0.4999381155
   27      C      -5.4132200312    -1.3771013338     1.0436079292
   28      C      -6.7869174454    -1.1559625733     0.9094694078
   29      C      -7.2382525369    -0.1195063083     0.1315869836
   30      N      -8.6162848763     0.1283206593    -0.0230322122
   31      C      -9.1074858841     1.4543658404     0.0731032000
   32      C     -10.0287250920     1.9405348166    -0.8512354329
   33      C     -10.4886830292     3.2305424480    -0.7351951082
   34      C     -10.0819170701     4.0855111217     0.2626871201
   35      C      -9.1693116446     3.6134405986     1.1835341316
   36      C      -8.7041065918     2.3196930924     1.0722970468
   37      C      -9.4853829188    -0.9638592093    -0.2728798199
   38      C      -9.1968557665    -1.9528998312    -1.1869031677
   39      C     -10.0830364775    -2.9949287540    -1.3887991846
   40      C     -11.2767748327    -3.0798083167    -0.6881399742
   41      C     -11.5655088068    -2.0941124203     0.2236008234
   42      C     -10.6713500718    -1.0607224888     0.4140732259
   43      H      11.4475955621    -2.0837676437    -0.5149990330
   44      H      12.1061527165    -1.4651590459    -2.0551358961
   45      H      13.2302708016    -1.6067819530    -0.6667250409
   46      H      12.7720576852     1.2866695947    -2.0838822908
   47      H      12.8540373162     1.9490385815    -0.4320096790
   48      H      13.8461575295     0.4791224868    -0.8543645263
   49      H      12.1912638254     2.0293598082     1.6674066876
   50      H      10.9613788951     2.1621555923     0.3186791584
   51      H      10.4158650855     1.6662037408     1.9837232463
   52      H      12.0141931452    -0.6950428317     2.7280190390
   53      H      13.3136869736     0.2648810471     1.8328775548
   54      H      12.8216829915    -1.4266039725     1.3314867389
   55      H       8.1537498440     1.8916946191    -1.7806758529
   56      H       5.6012811136     2.0841080009    -1.8621478145
   57      H       3.3383536451     0.9983816132    -0.9816855647
   58      H       3.9458938226    -1.3497947473     0.7896106818
   59      H       1.6901562299    -2.4304564604     1.6684313603
   60      H      -0.8596809151    -2.2189291840     1.5708567965
   61      H      -2.3089718350     0.6675930655    -0.5897350719
   62      H      -2.7744115835    -1.7001422553     1.2234769898
   63      H      -4.2629896965     1.0896972304    -0.8631350190
   64      H      -6.6129657697     1.5169200173    -1.1297038392
   65      H      -5.0636953131    -2.1930725069     1.6560764721
   66      H      -7.4654911380    -1.8252747951     1.4358496825
   67      H     -10.3627590702     1.2834574866    -1.6456850310
   68      H     -11.2063923107     3.5938051010    -1.4638344444
   69      H     -10.4492592187     5.0973664635     0.3451895633
   70      H      -8.8107418855     4.2402503363     1.9933797778
   71      H      -7.9856954207     1.9777330120     1.8137394199
   72      H      -8.2765063699    -1.9188008576    -1.7504131926
   73      H      -9.8852381362    -3.7858978897    -2.0988358192
   74      H     -11.9477544291    -3.9103909101    -0.8718362637
   75      H     -12.4975201870    -2.1644036898     0.7676962697
   76      H     -10.9199951403    -0.3052696862     1.1301770194
 ----------------------------------------------------------------
 Molecular Point Group                 C1    NOp =  1
 Largest Abelian Subgroup              C1    NOp =  1
 Nuclear Repulsion Energy =        4274.38664368 hartrees
 There are      155 alpha and      155 beta electrons
 Requested basis set is 6-31G(d)
 There are 238 shells and 706 basis functions

 Total QAlloc Memory Limit   2000 MB
 Mega-Array Size       489 MB
 MEM_STATIC part       500 MB
 A cutoff of  1.0D-11 yielded   8967 shell pairs
 There are     83858 function pairs
 Smallest overlap matrix eigenvalue = 3.31E-04

 Scale SEOQF with 1.000000e-02/1.000000e-01/1.000000e-01

 Standard Electronic Orientation quadrupole field applied
 Nucleus-field energy     =     0.0000001068 hartrees
 Guess from superposition of atomic densities
 Warning:  Energy on first SCF cycle will be non-variational
 SAD guess density has 310.000001 electrons

 -----------------------------------------------------------------------
  General SCF calculation program by
  Eric Jon Sundstrom, Paul Horn, Yuezhi Mao, Dmitri Zuev, Alec White,
  David Stuck, Shaama M.S., Shane Yost, Joonho Lee, David Small,
  Daniel Levine, Susi Lehtola, Hugh Burton, Evgeny Epifanovsky,
  Bang C. Huynh
 -----------------------------------------------------------------------
 Exchange:     0.2500 Hartree-Fock + 0.7500 PBE
 Correlation:  1.0000 PBE
 Using SG-1 standard quadrature grid
 using 12 threads for integral computing
 -------------------------------------------------------
 OpenMP Integral computing Module                
 Release: version 1.0, May 2013, Q-Chem Inc. Pittsburgh 
 -------------------------------------------------------
 A restricted SCF calculation will be
 performed using DIIS
 SCF converges when DIIS error is below 1.0e-08
 ---------------------------------------
  Cycle       Energy         DIIS error
 ---------------------------------------
    1   -2428.2955691235      3.13e-02  
    2   -2415.9994760542      2.85e-03  
    3   -2415.8247596518      3.33e-03  
    4   -2416.4838791948      7.84e-04  
    5   -2416.5214626650      2.62e-04  
    6   -2416.5251896741      1.25e-04  
    7   -2416.5262238110      2.84e-05  
    8   -2416.5262711282      8.98e-06  
    9   -2416.5262754832      2.93e-06  
   10   -2416.5262759931      1.03e-06  
   11   -2416.5262760564      4.39e-07  
   12   -2416.5262760689      1.07e-07  
   13   -2416.5262760695      4.31e-08  
   14   -2416.5262760696      1.32e-08  
   15   -2416.5262760696      5.62e-09  Convergence criterion met
 ---------------------------------------
 SCF time:   CPU 2512.23s  wall 310.00s 
 SCF   energy in the final basis set =    -2416.5262760696
 Total energy in the final basis set =    -2416.5262760696

 --------------------------------------------------------------

                    Orbital Energies (a.u.)
 --------------------------------------------------------------

 Alpha MOs
 -- Occupied --
-89.0635 -89.0630 -19.2340 -19.2315 -14.4315 -10.2804 -10.2787 -10.2785
-10.2777 -10.2774 -10.2770 -10.2759 -10.2743 -10.2582 -10.2566 -10.2553
-10.2506 -10.2446 -10.2442 -10.2405 -10.2399 -10.2390 -10.2388 -10.2383
-10.2370 -10.2370 -10.2365 -10.2359 -10.2358 -10.2353 -10.2347 -10.2340
-10.2335 -10.2335 -10.2324 -10.2320 -10.2308 -10.2266 -10.2207 -10.2205
-10.2201  -8.0326  -8.0325  -6.8543  -5.9696  -5.9695  -5.9660  -5.9659
 -5.9632  -5.9629  -1.1058  -1.0319  -0.9988  -0.9344  -0.9291  -0.8986
 -0.8906  -0.8743  -0.8502  -0.8349  -0.8321  -0.7917  -0.7873  -0.7724
 -0.7714  -0.7700  -0.7679  -0.7639  -0.7589  -0.7570  -0.7400  -0.7239
 -0.7207  -0.6909  -0.6651  -0.6529  -0.6438  -0.6346  -0.6328  -0.6267
 -0.6207  -0.6086  -0.5908  -0.5851  -0.5749  -0.5669  -0.5609  -0.5568
 -0.5562  -0.5462  -0.5406  -0.5292  -0.5214  -0.5142  -0.4985  -0.4970
 -0.4884  -0.4866  -0.4826  -0.4720  -0.4700  -0.4676  -0.4627  -0.4608
 -0.4567  -0.4522  -0.4499  -0.4455  -0.4339  -0.4315  -0.4299  -0.4277
 -0.4227  -0.4211  -0.4145  -0.4109  -0.4099  -0.3999  -0.3990  -0.3978
 -0.3948  -0.3911  -0.3875  -0.3867  -0.3836  -0.3812  -0.3778  -0.3772
 -0.3711  -0.3695  -0.3680  -0.3636  -0.3606  -0.3605  -0.3527  -0.3517
 -0.3474  -0.3435  -0.3351  -0.3315  -0.3262  -0.3243  -0.3092  -0.3052
 -0.2797  -0.2742  -0.2702  -0.2690  -0.2649  -0.2636  -0.2607  -0.2600
 -0.2466  -0.2107  -0.1911
 -- Virtual --
 -0.0683  -0.0355  -0.0100  -0.0043   0.0003   0.0097   0.0143   0.0223
  0.0396   0.0500   0.0571   0.0629   0.0800   0.0876   0.0911   0.1010
  0.1016   0.1063   0.1079   0.1111   0.1128   0.1194   0.1209   0.1216
  0.1312   0.1351   0.1437   0.1446   0.1532   0.1551   0.1576   0.1581
  0.1606   0.1674   0.1684   0.1697   0.1717   0.1757   0.1794   0.1845
  0.1860   0.1888   0.1900   0.1948   0.1965   0.1998   0.2005   0.2018
  0.2045   0.2075   0.2086   0.2117   0.2187   0.2208   0.2350   0.2376
  0.2416   0.2490   0.2543   0.2624   0.2647   0.2709   0.2732   0.2789
  0.2796   0.2800   0.2851   0.2874   0.2979   0.3028   0.3061   0.3074
  0.3131   0.3197   0.3207   0.3219   0.3233   0.3401   0.3460   0.3476
  0.3518   0.3614   0.3698   0.3780   0.3798   0.3806   0.3836   0.3938
  0.4001   0.4028   0.4110   0.4269   0.4365   0.4531   0.4601   0.4650
  0.4662   0.4682   0.4767   0.4858   0.4883   0.5116   0.5249   0.5265
  0.5313   0.5346   0.5389   0.5422   0.5483   0.5489   0.5510   0.5513
  0.5539   0.5561   0.5583   0.5631   0.5655   0.5694   0.5728   0.5770
  0.5795   0.5831   0.5864   0.5881   0.5964   0.5992   0.6010   0.6020
  0.6055   0.6107   0.6135   0.6149   0.6164   0.6203   0.6225   0.6254
  0.6263   0.6274   0.6284   0.6297   0.6311   0.6324   0.6339   0.6345
  0.6370   0.6378   0.6413   0.6419   0.6463   0.6529   0.6558   0.6621
  0.6625   0.6628   0.6672   0.6700   0.6786   0.6850   0.6886   0.6937
  0.6952   0.7015   0.7041   0.7081   0.7127   0.7160   0.7203   0.7209
  0.7342   0.7375   0.7421   0.7447   0.7499   0.7651   0.7656   0.7921
  0.7948   0.8028   0.8064   0.8109   0.8151   0.8213   0.8247   0.8291
  0.8341   0.8406   0.8423   0.8438   0.8452   0.8502   0.8564   0.8596
  0.8650   0.8662   0.8681   0.8695   0.8702   0.8707   0.8715   0.8774
  0.8825   0.8865   0.8869   0.8890   0.8921   0.8942   0.8962   0.8981
  0.9069   0.9097   0.9143   0.9209   0.9231   0.9265   0.9303   0.9344
  0.9368   0.9416   0.9432   0.9450   0.9464   0.9531   0.9581   0.9602
  0.9662   0.9712   0.9728   0.9752   0.9798   0.9828   0.9939   0.9953
  1.0040   1.0085   1.0113   1.0186   1.0220   1.0266   1.0295   1.0313
  1.0352   1.0388   1.0401   1.0445   1.0542   1.0618   1.0724   1.0834
  1.0890   1.0929   1.0968   1.0992   1.1082   1.1171   1.1217   1.1246
  1.1315   1.1328   1.1487   1.1511   1.1644   1.1741   1.1792   1.1858
  1.1865   1.1885   1.1932   1.2041   1.2070   1.2199   1.2226   1.2242
  1.2292   1.2343   1.2420   1.2538   1.2600   1.2626   1.2732   1.2879
  1.2896   1.3036   1.3109   1.3148   1.3229   1.3263   1.3315   1.3345
  1.3421   1.3545   1.3583   1.3662   1.3706   1.3862   1.3986   1.4124
  1.4165   1.4180   1.4259   1.4286   1.4294   1.4310   1.4423   1.4460
  1.4541   1.4552   1.4608   1.4668   1.4858   1.4892   1.4940   1.4986
  1.5065   1.5146   1.5214   1.5232   1.5253   1.5272   1.5321   1.5393
  1.5486   1.5506   1.5581   1.5675   1.5809   1.5922   1.6130   1.6264
  1.6512   1.6585   1.6601   1.6689   1.6774   1.6811   1.7003   1.7168
  1.7223   1.7312   1.7399   1.7504   1.7532   1.7678   1.7789   1.7926
  1.7953   1.8013   1.8040   1.8157   1.8261   1.8353   1.8465   1.8478
  1.8543   1.8558   1.8726   1.8739   1.8954   1.8973   1.9059   1.9087
  1.9147   1.9218   1.9295   1.9325   1.9375   1.9397   1.9426   1.9466
  1.9601   1.9750   1.9800   1.9837   1.9893   1.9916   2.0020   2.0058
  2.0166   2.0203   2.0216   2.0263   2.0396   2.0506   2.0669   2.0788
  2.0847   2.0879   2.0940   2.0954   2.0986   2.1032   2.1086   2.1108
  2.1272   2.1411   2.1462   2.1497   2.1579   2.1626   2.1639   2.1658
  2.1716   2.1754   2.1831   2.1858   2.1878   2.1897   2.1983   2.2125
  2.2165   2.2178   2.2271   2.2360   2.2425   2.2478   2.2518   2.2626
  2.2655   2.2757   2.2799   2.2840   2.2872   2.2922   2.3023   2.3066
  2.3153   2.3198   2.3271   2.3338   2.3356   2.3385   2.3441   2.3512
  2.3608   2.3694   2.3731   2.3952   2.4024   2.4108   2.4192   2.4196
  2.4288   2.4353   2.4465   2.4482   2.4702   2.4816   2.4951   2.5050
  2.5228   2.5279   2.5328   2.5645   2.5670   2.5738   2.5797   2.5811
  2.5964   2.6056   2.6078   2.6161   2.6173   2.6284   2.6684   2.6869
  2.6949   2.6964   2.6996   2.7106   2.7217   2.7337   2.7435   2.7521
  2.7605   2.7690   2.7838   2.7939   2.8040   2.8068   2.8123   2.8137
  2.8176   2.8331   2.8503   2.8644   2.8706   2.8932   2.9065   2.9083
  2.9243   2.9392   2.9487   2.9641   2.9806   3.0018   3.0130   3.0217
  3.0365   3.0512   3.0815   3.1361   3.1637   3.1808   3.2127   3.2467
  3.2547   3.3236   3.4852   3.4968   3.5156   3.7379   4.0072   4.0164
  4.1264   4.1369   4.1387   4.1435   4.1455   4.1497   4.1554   4.1594
  4.1688   4.1720   4.1929   4.1957   4.2107   4.2192   4.2211   4.2223
  4.2586   4.2669   4.2829   4.3070   4.3258   4.3452   4.3655   4.3678
  4.3746   4.4131   4.4204   4.4338   4.4491   4.4831   4.5163   4.5746
  4.6020   4.6134   4.6968   4.7579   4.7713   4.8188   4.8856
 --------------------------------------------------------------

          Ground-State Mulliken Net Atomic Charges

     Atom                 Charge (a.u.)
  ----------------------------------------
      1 C                    -0.548786
      2 C                     0.274371
      3 C                    -0.553963
      4 O                    -0.511046
      5 B                     0.649023
      6 O                    -0.505932
      7 C                     0.283856
      8 C                    -0.564124
      9 C                    -0.539563
     10 C                    -0.351904
     11 C                    -0.175688
     12 C                    -0.146608
     13 C                    -0.222897
     14 S                     0.310249
     15 C                    -0.150632
     16 C                    -0.128748
     17 C                    -0.227324
     18 S                     0.297796
     19 C                    -0.161911
     20 C                    -0.152248
     21 C                    -0.213959
     22 C                    -0.161396
     23 C                    -0.178329
     24 C                     0.153913
     25 C                    -0.230249
     26 C                    -0.193368
     27 C                    -0.249198
     28 C                    -0.193354
     29 C                     0.272361
     30 N                    -0.686126
     31 C                     0.265894
     32 C                    -0.183839
     33 C                    -0.186141
     34 C                    -0.163315
     35 C                    -0.176622
     36 C                    -0.194755
     37 C                     0.273748
     38 C                    -0.191391
     39 C                    -0.183008
     40 C                    -0.164658
     41 C                    -0.174752
     42 C                    -0.196692
     43 H                     0.181733
     44 H                     0.181049
     45 H                     0.173508
     46 H                     0.189981
     47 H                     0.181454
     48 H                     0.171603
     49 H                     0.169093
     50 H                     0.188239
     51 H                     0.188968
     52 H                     0.187078
     53 H                     0.166391
     54 H                     0.185646
     55 H                     0.184552
     56 H                     0.172984
     57 H                     0.199249
     58 H                     0.200458
     59 H                     0.173341
     60 H                     0.170206
     61 H                     0.184683
     62 H                     0.172530
     63 H                     0.168314
     64 H                     0.188060
     65 H                     0.167341
     66 H                     0.188762
     67 H                     0.184169
     68 H                     0.167732
     69 H                     0.170047
     70 H                     0.173104
     71 H                     0.177784
     72 H                     0.182379
     73 H                     0.169835
     74 H                     0.168419
     75 H                     0.172201
     76 H                     0.180425
  ----------------------------------------
  Sum of atomic charges =     0.000000

 -----------------------------------------------------------------
                    Cartesian Multipole Moments
 -----------------------------------------------------------------
    Charge (ESU x 10^10)
                -0.0000
    Dipole Moment (Debye)
         X      -1.6163      Y       0.2917      Z       0.1425
       Tot       1.6486
    Quadrupole Moments (Debye-Ang)
        XX    -212.6721     XY       6.5977     YY    -243.8415
        XZ       0.2911     YZ      -4.6717     ZZ    -257.4089
    Octopole Moments (Debye-Ang^2)
       XXX     259.2126    XXY      34.3758    XYY     -58.3412
       YYY      12.6577    XXZ      -0.6362    XYZ     -15.2279
       YYZ       2.0282    XZZ     -15.1967    YZZ       1.8608
       ZZZ       1.8257
    Hexadecapole Moments (Debye-Ang^3)
      XXXX  -95394.5249   XXXY     973.2666   XXYY  -17303.9547
      XYYY    -145.7302   YYYY   -3860.2018   XXXZ     318.8734
      XXYZ     105.2292   XYYZ       9.0341   YYYZ      50.8317
      XXZZ  -18183.3479   XYZZ      30.9601   YYZZ    -855.5536
      XZZZ      17.0413   YZZZ      -7.6457   ZZZZ   -1452.2546
 -----------------------------------------------------------------
 Calculating analytic gradient of the SCF energy
 Gradient of SCF Energy
            1           2           3           4           5           6
    1   0.0205936  -0.0294445  -0.0209085   0.0794940  -0.0422722   0.0691367
    2   0.0171296   0.0143197  -0.0205882   0.0047416  -0.0225727   0.0123408
    3   0.0299887  -0.0087798   0.0118692  -0.0052014  -0.0130823   0.0395296
            7           8           9          10          11          12
    1  -0.0470976   0.0142171   0.0088588  -0.0036187  -0.0922029   0.0776881
    2  -0.0022531  -0.0223376  -0.0030182   0.0138660  -0.0309344  -0.0455214
    3  -0.0106275  -0.0204251  -0.0125436  -0.0002286   0.0296586   0.0309186
           13          14          15          16          17          18
    1   0.0054653   0.0070196  -0.0617212   0.0718427  -0.0068973  -0.0063824
    2  -0.0044365   0.0495550  -0.0169763   0.0089583   0.0018809  -0.0511763
    3   0.0034214  -0.0398366   0.0146434  -0.0086170  -0.0011266   0.0390641
           19          20          21          22          23          24
    1  -0.0751958   0.0879145  -0.0075782  -0.0727077   0.0492860  -0.0142438
    2   0.0454321   0.0317317  -0.0053659  -0.0071510   0.0241070   0.0073754
    3  -0.0327233  -0.0263434   0.0043229   0.0072052  -0.0196659  -0.0053905
           25          26          27          28          29          30
    1   0.0227637  -0.0354600   0.0190541  -0.0200260   0.0262508   0.0003334
    2  -0.0147981  -0.0180288   0.0103274   0.0247520  -0.0050509   0.0008318
    3   0.0086736   0.0130106  -0.0062210  -0.0168687   0.0021514   0.0006618
           31          32          33          34          35          36
    1   0.0044761  -0.0025362   0.0191239  -0.0036533  -0.0025692  -0.0201404
    2   0.0091882   0.0120588  -0.0079568  -0.0063940  -0.0027985   0.0060082
    3   0.0087451   0.0019037   0.0178412  -0.0082836  -0.0022524  -0.0218495
           37          38          39          40          41          42
    1  -0.0058316  -0.0113338   0.0037192  -0.0043431   0.0081216   0.0190506
    2  -0.0156825   0.0104326   0.0098091   0.0072215   0.0025547  -0.0063493
    3  -0.0048597   0.0140503   0.0028362   0.0081293  -0.0010577  -0.0157577
           43          44          45          46          47          48
    1  -0.0169212  -0.0046306   0.0011369  -0.0020520  -0.0028434   0.0111972
    2  -0.0056517   0.0003766   0.0040449   0.0080934   0.0135914  -0.0134711
    3   0.0029420  -0.0153768  -0.0025943  -0.0113057   0.0095214   0.0038766
           49          50          51          52          53          54
    1   0.0155451   0.0010252  -0.0178399  -0.0103826   0.0046340  -0.0039851
    2  -0.0003437  -0.0031882  -0.0038020  -0.0058278   0.0163911  -0.0005883
    3   0.0063376  -0.0128145   0.0112361   0.0038380  -0.0043563  -0.0041022
           55          56          57          58          59          60
    1   0.0138453  -0.0096180  -0.0005474  -0.0094412   0.0100288  -0.0153002
    2   0.0095255   0.0096133  -0.0104642   0.0195414  -0.0098179  -0.0070009
    3  -0.0068497  -0.0075076   0.0079515  -0.0146459   0.0071472   0.0057444
           61          62          63          64          65          66
    1   0.0006441   0.0046442  -0.0050781   0.0050894   0.0004901   0.0020683
    2  -0.0156350   0.0004748  -0.0080870   0.0021402   0.0060282  -0.0035694
    3   0.0118641  -0.0004496   0.0068263  -0.0016132  -0.0049245   0.0024799
           67          68          69          70          71          72
    1   0.0022160   0.0013558   0.0036813  -0.0001152  -0.0003978  -0.0046383
    2  -0.0009234   0.0003371  -0.0036944  -0.0005776   0.0027664  -0.0009357
    3   0.0024639   0.0024315   0.0027701  -0.0008718   0.0005189   0.0024909
           73          74          75          76
    1  -0.0072098   0.0022722   0.0017446   0.0011370
    2  -0.0000459   0.0008436  -0.0054127  -0.0099629
    3   0.0048614  -0.0008595  -0.0054711  -0.0084423
 Max gradient component =       9.220E-02
 RMS gradient           =       2.122E-02
 Gradient time:  CPU 627.67 s  wall 75.36 s
 Geometry Optimization Parameters
   NAtoms,    NIC,     NZ,  NCons,   NDum,   NFix, NCnnct, MaxDiis
       76     568       0       0       0       0       0       0


** GEOMETRY OPTIMIZATION IN DELOCALIZED INTERNAL COORDINATES **
   Searching for a Minimum

   Optimization Cycle:   1

                       Coordinates (Angstroms)
     ATOM                X               Y               Z
      1  C        12.2024513495   -1.3715217348   -0.9394136246
      2  C        11.7817518036    0.0421346120   -0.5972098326
      3  C        12.8639571397    0.9935700775   -1.0107446746
      4  O        10.5729179609    0.2748409849   -1.2172030783
      5  B         9.5361122910   -0.1368396006   -0.2761975265
      6  O        10.2094109385   -0.4681602021    0.9721445621
      7  C        11.4260243469    0.1625459703    0.8682690179
      8  C        11.2545574411    1.6082638001    1.2310096647
      9  C        12.4874546147   -0.4757274071    1.7485748466
     10  C         8.0041608878    0.1917562866   -0.4862091713
     11  C         7.4646925192    1.2007709218   -1.2387197129
     12  C         6.1349202655    1.3001572222   -1.2803372165
     13  C         5.4158459718    0.3827912418   -0.5653485535
     14  S         6.6252129727   -0.5905600029    0.1430648792
     15  C         3.9425393948    0.2862059651   -0.4550057037
     16  C         3.3707168735   -0.6404598692    0.2642722785
     17  C         1.8983448857   -0.7364549738    0.3740599347
     18  S         0.6977240188    0.2478321760   -0.3450198527
     19  C         1.1644404352   -1.6434047957    1.0825593688
     20  C        -0.1652163789   -1.5346290061    1.0327452705
     21  C        -0.6942707362   -0.5250084078    0.2776058168
     22  C        -2.1017722738   -0.1618172003    0.0362297854
     23  C        -3.0466072844   -0.8586644807    0.5899241781
     24  C        -4.4710273545   -0.5873147294    0.4188044646
     25  C        -4.9497424808    0.4446129054   -0.3549204119
     26  C        -6.3200097446    0.6799240850   -0.4999381155
     27  C        -5.4132200312   -1.3771013338    1.0436079292
     28  C        -6.7869174454   -1.1559625733    0.9094694078
     29  C        -7.2382525369   -0.1195063083    0.1315869836
     30  N        -8.6162848763    0.1283206593   -0.0230322122
     31  C        -9.1074858841    1.4543658404    0.0731032000
     32  C       -10.0287250920    1.9405348166   -0.8512354329
     33  C       -10.4886830292    3.2305424480   -0.7351951082
     34  C       -10.0819170701    4.0855111217    0.2626871201
     35  C        -9.1693116446    3.6134405986    1.1835341316
     36  C        -8.7041065918    2.3196930924    1.0722970468
     37  C        -9.4853829188   -0.9638592093   -0.2728798199
     38  C        -9.1968557665   -1.9528998312   -1.1869031677
     39  C       -10.0830364775   -2.9949287540   -1.3887991846
     40  C       -11.2767748327   -3.0798083167   -0.6881399742
     41  C       -11.5655088068   -2.0941124203    0.2236008234
     42  C       -10.6713500718   -1.0607224888    0.4140732259
     43  H        11.4475955621   -2.0837676437   -0.5149990330
     44  H        12.1061527165   -1.4651590459   -2.0551358961
     45  H        13.2302708016   -1.6067819530   -0.6667250409
     46  H        12.7720576852    1.2866695947   -2.0838822908
     47  H        12.8540373162    1.9490385815   -0.4320096790
     48  H        13.8461575295    0.4791224868   -0.8543645263
     49  H        12.1912638254    2.0293598082    1.6674066876
     50  H        10.9613788951    2.1621555923    0.3186791584
     51  H        10.4158650855    1.6662037408    1.9837232463
     52  H        12.0141931452   -0.6950428317    2.7280190390
     53  H        13.3136869736    0.2648810471    1.8328775548
     54  H        12.8216829915   -1.4266039725    1.3314867389
     55  H         8.1537498440    1.8916946191   -1.7806758529
     56  H         5.6012811136    2.0841080009   -1.8621478145
     57  H         3.3383536451    0.9983816132   -0.9816855647
     58  H         3.9458938226   -1.3497947473    0.7896106818
     59  H         1.6901562299   -2.4304564604    1.6684313603
     60  H        -0.8596809151   -2.2189291840    1.5708567965
     61  H        -2.3089718350    0.6675930655   -0.5897350719
     62  H        -2.7744115835   -1.7001422553    1.2234769898
     63  H        -4.2629896965    1.0896972304   -0.8631350190
     64  H        -6.6129657697    1.5169200173   -1.1297038392
     65  H        -5.0636953131   -2.1930725069    1.6560764721
     66  H        -7.4654911380   -1.8252747951    1.4358496825
     67  H       -10.3627590702    1.2834574866   -1.6456850310
     68  H       -11.2063923107    3.5938051010   -1.4638344444
     69  H       -10.4492592187    5.0973664635    0.3451895633
     70  H        -8.8107418855    4.2402503363    1.9933797778
     71  H        -7.9856954207    1.9777330120    1.8137394199
     72  H        -8.2765063699   -1.9188008576   -1.7504131926
     73  H        -9.8852381362   -3.7858978897   -2.0988358192
     74  H       -11.9477544291   -3.9103909101   -0.8718362637
     75  H       -12.4975201870   -2.1644036898    0.7676962697
     76  H       -10.9199951403   -0.3052696862    1.1301770194
   Point Group: c1    Number of degrees of freedom:   222


   Energy is  -2416.526276070


 Attempting to generate delocalized internal coordinates
 Initial Hessian constructed with Jon Baker's OPTIMIZE code

222 Hessian modes will be used to form the next step
  Hessian Eigenvalues:
     0.006596    0.007313    0.008066    0.009131    0.009293    0.011747
     0.011880    0.012683    0.013114    0.013270    0.013349    0.013696
     0.014457    0.014501    0.015168    0.016204    0.016729    0.017313
     0.018052    0.018845    0.018855    0.019446    0.020686    0.021594
     0.021622    0.022232    0.023469    0.023651    0.023805    0.023823
     0.024140    0.024220    0.024349    0.024422    0.024645    0.024678
     0.024707    0.024841    0.024951    0.024997    0.025006    0.025097
     0.025100    0.025114    0.025318    0.025340    0.025381    0.025425
     0.025528    0.025545    0.025677    0.025713    0.025892    0.027674
     0.027790    0.028242    0.028388    0.029433    0.029477    0.034972
     0.035895    0.047993    0.049519    0.054141    0.057178    0.059222
     0.060161    0.060279    0.060301    0.061059    0.063897    0.064736
     0.064885    0.074577    0.109203    0.122147    0.147074    0.160000
     0.160000    0.160000    0.160000    0.160000    0.160000    0.160000
     0.160000    0.160000    0.160000    0.160000    0.160000    0.160000
     0.160000    0.160000    0.160000    0.160000    0.160000    0.160000
     0.160000    0.160000    0.160000    0.160000    0.160000    0.160000
     0.160000    0.160000    0.160000    0.160000    0.160000    0.160000
     0.160000    0.160000    0.160000    0.172590    0.207141    0.220000
     0.220000    0.220000    0.220000    0.220000    0.220000    0.220000
     0.220000    0.220000    0.226072    0.226091    0.229728    0.234667
     0.234756    0.238900    0.240001    0.245595    0.245626    0.250000
     0.250000    0.250000    0.250000    0.250000    0.250000    0.250000
     0.250000    0.250000    0.250000    0.251893    0.283755    0.304121
     0.307247    0.309414    0.311837    0.314361    0.315897    0.318579
     0.319489    0.319528    0.319856    0.322215    0.322702    0.323080
     0.323275    0.323395    0.324681    0.326341    0.329368    0.335601
     0.338639    0.340093    0.342844    0.345025    0.345266    0.346181
     0.347207    0.349179    0.349500    0.350544    0.350852    0.350961
     0.353234    0.353557    0.353921    0.355469    0.355828    0.358146
     0.358545    0.360308    0.360392    0.361421    0.361800    0.369521
     0.369527    0.371626    0.372043    0.385803    0.393892    0.421232
     0.427690    0.428601    0.437353    0.438104    0.442163    0.443203
     0.448737    0.455784    0.459797    0.464488    0.479430    0.480749
     0.483343    0.484684    0.485866    0.489136    0.489155    0.490115
     0.495472    0.498004    0.498928    0.501128    0.501635    0.501650
     0.503183    0.505438    0.562841    0.564378    0.658207    0.677427

 Minimum search - taking simple RFO step
 Searching for Lamda that Minimizes Along All modes
 Value Taken    Lamda =  -0.12876099
 Calculated Step too Large.  Step scaled by  0.539743
 Step Taken.  Stepsize is  0.300000

                             Maximum     Tolerance    Cnvgd?
         Gradient           0.061855      0.000300      NO
         Displacement       0.074316      0.001200      NO
         Energy change     *********      0.000001      NO


 New Cartesian Coordinates Obtained by Inverse Iteration

 Displacement from previous Coordinates is:  1.405996
 ----------------------------------------------------------------
             Standard Nuclear Orientation (Angstroms)
    I     Atom           X                Y                Z
 ----------------------------------------------------------------
    1      C      12.1083761841    -1.3651731789    -1.0216574652
    2      C      11.7123067816     0.0587946882    -0.6421596373
    3      C      12.8030604678     1.0047636144    -1.0949326230
    4      O      10.4726901083     0.3128504558    -1.2351700013
    5      B       9.4759395265    -0.0928954385    -0.2889456351
    6      O      10.1289127209    -0.4474861231     0.9367174176
    7      C      11.3736201955     0.1730208759     0.8525408629
    8      C      11.2112875370     1.6306451977     1.2583369038
    9      C      12.4216160603    -0.4956458677     1.7417317724
   10      C       7.9637545599     0.2298990090    -0.4885949017
   11      C       7.4437857991     1.2565167084    -1.2504674460
   12      C       6.0900673357     1.3501073096    -1.2771893922
   13      C       5.4110891860     0.4023762147    -0.5396753601
   14      S       6.6119559575    -0.5920167127     0.1751876794
   15      C       3.9566067602     0.2813857867    -0.4047095208
   16      C       3.3793299299    -0.6629934296     0.3266921790
   17      C       1.9258225712    -0.7852254111     0.4587543154
   18      S       0.7324965371     0.2168397155    -0.2676067102
   19      C       1.2313033093    -1.7250145077     1.1879575976
   20      C      -0.1223068725    -1.6279156829     1.1486385017
   21      C      -0.6335711215    -0.5999378919     0.3838531509
   22      C      -2.0278431673    -0.2250051321     0.1332005151
   23      C      -3.0270384891    -0.9052587072     0.6679286130
   24      C      -4.4460516628    -0.6095436076     0.4716559817
   25      C      -4.9050075745     0.4407816790    -0.3129141245
   26      C      -6.2665530736     0.6870676273    -0.4774609095
   27      C      -5.4098614344    -1.4010216841     1.0854778867
   28      C      -6.7748849359    -1.1655292714     0.9310490307
   29      C      -7.2092128586    -0.1143920000     0.1430204716
   30      N      -8.5855431133     0.1411244480    -0.0318168333
   31      C      -9.0739129112     1.4652518658     0.0497709013
   32      C      -9.9892602334     1.9448528386    -0.8919734782
   33      C     -10.4552411988     3.2406907787    -0.7957750156
   34      C     -10.0467604719     4.0998005967     0.2086744363
   35      C      -9.1379480149     3.6306243355     1.1462699994
   36      C      -8.6681245248     2.3311516465     1.0565895314
   37      C      -9.4600651902    -0.9415017020    -0.2899233707
   38      C      -9.1436979000    -1.9375783805    -1.2025725471
   39      C     -10.0259395041    -2.9815678254    -1.4269494053
   40      C     -11.2408643619    -3.0578737999    -0.7525408808
   41      C     -11.5587670708    -2.0650095843     0.1571766474
   42      C     -10.6709070152    -1.0260401419     0.3775522144
   43      H      11.3747067586    -2.0795240308    -0.5909493568
   44      H      11.9877700886    -1.4462648916    -2.1257788538
   45      H      13.1394315727    -1.6187934916    -0.7781257162
   46      H      12.6744951553     1.2866506821    -2.1585751820
   47      H      12.8279848256     1.9552871564    -0.5289965597
   48      H      13.7827744673     0.4981021191    -0.9783596137
   49      H      12.1373425502     2.0412152746     1.7024678721
   50      H      10.9173561890     2.2276187729     0.3806386085
   51      H      10.3883156787     1.6823880393     2.0087777331
   52      H      11.9491787665    -0.7130532806     2.7156228901
   53      H      13.2660075943     0.2065408290     1.8537912013
   54      H      12.7492680786    -1.4498945517     1.3284904544
   55      H       8.1226710502     1.9409674304    -1.7902700741
   56      H       5.5417478291     2.1216226788    -1.8433386005
   57      H       3.3499022518     1.0003057596    -0.9316732396
   58      H       3.9655532517    -1.3823961613     0.8543833761
   59      H       1.7717060794    -2.4989959798     1.7592192370
   60      H      -0.8014818941    -2.3130169942     1.6835570483
   61      H      -2.2022630059     0.6191500471    -0.5012832196
   62      H      -2.7992043508    -1.7566117376     1.3052374149
   63      H      -4.2043431760     1.0872229785    -0.8140812765
   64      H      -6.5542859651     1.5251105753    -1.1069990874
   65      H      -5.0811770850    -2.2269937136     1.7034484496
   66      H      -7.4739968336    -1.8249122919     1.4402034030
   67      H     -10.3181145240     1.2826765440    -1.6859023696
   68      H     -11.1664126367     3.5985058562    -1.5355689957
   69      H     -10.4157975261     5.1148784969     0.2773418782
   70      H      -8.7875992088     4.2659802521     1.9538627457
   71      H      -7.9570368626     1.9862130829     1.8043639815
   72      H      -8.2054802536    -1.9020114087    -1.7419247149
   73      H      -9.7985746533    -3.7698842522    -2.1350782918
   74      H     -11.9115565905    -3.8870039005    -0.9499630823
   75      H     -12.5049725466    -2.1261450891     0.6821011666
   76      H     -10.9340883566    -0.2618535641     1.0902630630
 ----------------------------------------------------------------
 Molecular Point Group                 C1    NOp =  1
 Largest Abelian Subgroup              C1    NOp =  1
 Nuclear Repulsion Energy =        4270.03493916 hartrees
 There are      155 alpha and      155 beta electrons
 Applying Cartesian multipole field
    Component          Value
    ---------          -----
     (2,0,0)        1.00000E-12
     (0,2,0)        2.00000E-11
     (0,0,2)       -3.00000E-11
 Nucleus-field energy     =     0.0000001057 hartrees
 Requested basis set is 6-31G(d)
 There are 238 shells and 706 basis functions
 A cutoff of  1.0D-11 yielded   8966 shell pairs
 There are     83966 function pairs
 Smallest overlap matrix eigenvalue = 3.51E-04
 Guess MOs from SCF MO coefficient file

 -----------------------------------------------------------------------
  General SCF calculation program by
  Eric Jon Sundstrom, Paul Horn, Yuezhi Mao, Dmitri Zuev, Alec White,
  David Stuck, Shaama M.S., Shane Yost, Joonho Lee, David Small,
  Daniel Levine, Susi Lehtola, Hugh Burton, Evgeny Epifanovsky,
  Bang C. Huynh
 -----------------------------------------------------------------------
 Exchange:     0.2500 Hartree-Fock + 0.7500 PBE
 Correlation:  1.0000 PBE
 Using SG-1 standard quadrature grid
 using 12 threads for integral computing
 -------------------------------------------------------
 OpenMP Integral computing Module                
 Release: version 1.0, May 2013, Q-Chem Inc. Pittsburgh 
 -------------------------------------------------------
 A restricted SCF calculation will be
 performed using DIIS
 SCF converges when DIIS error is below 1.0e-08
 ---------------------------------------
  Cycle       Energy         DIIS error
 ---------------------------------------
    1   -2416.5714361189      3.08e-04  
    2   -2416.5807135923      9.56e-05  
    3   -2416.5807887651      9.03e-05  
    4   -2416.5812660137      2.40e-05  
    5   -2416.5813026599      8.07e-06  
    6   -2416.5813064515      3.40e-06  
    7   -2416.5813072189      9.48e-07  
    8   -2416.5813072751      3.24e-07  
    9   -2416.5813072817      1.05e-07  
   10   -2416.5813072823      4.24e-08  
   11   -2416.5813072824      1.44e-08  
   12   -2416.5813072824      4.59e-09  Convergence criterion met
 ---------------------------------------
 SCF time:   CPU 2182.34s  wall 259.00s 
 SCF   energy in the final basis set =    -2416.5813072824
 Total energy in the final basis set =    -2416.5813072824

 --------------------------------------------------------------

                    Orbital Energies (a.u.)
 --------------------------------------------------------------

 Alpha MOs
 -- Occupied --
-89.0644 -89.0635 -19.2320 -19.2294 -14.4324 -10.2867 -10.2861 -10.2797
-10.2786 -10.2778 -10.2774 -10.2767 -10.2744 -10.2553 -10.2538 -10.2537
-10.2513 -10.2470 -10.2458 -10.2417 -10.2414 -10.2399 -10.2398 -10.2397
-10.2395 -10.2386 -10.2384 -10.2381 -10.2377 -10.2374 -10.2366 -10.2361
-10.2356 -10.2351 -10.2343 -10.2339 -10.2338 -10.2261 -10.2219 -10.2204
-10.2202  -8.0334  -8.0321  -6.8396  -5.9705  -5.9691  -5.9670  -5.9655
 -5.9638  -5.9626  -1.1005  -1.0270  -0.9989  -0.9259  -0.9187  -0.8941
 -0.8868  -0.8701  -0.8438  -0.8284  -0.8254  -0.7880  -0.7850  -0.7715
 -0.7704  -0.7688  -0.7683  -0.7616  -0.7575  -0.7560  -0.7358  -0.7220
 -0.7135  -0.6937  -0.6646  -0.6508  -0.6428  -0.6328  -0.6318  -0.6247
 -0.6194  -0.6077  -0.5896  -0.5824  -0.5728  -0.5644  -0.5588  -0.5547
 -0.5542  -0.5440  -0.5399  -0.5257  -0.5179  -0.5125  -0.4971  -0.4946
 -0.4862  -0.4837  -0.4813  -0.4699  -0.4687  -0.4658  -0.4599  -0.4575
 -0.4539  -0.4491  -0.4456  -0.4418  -0.4343  -0.4322  -0.4309  -0.4254
 -0.4183  -0.4177  -0.4127  -0.4067  -0.4063  -0.4004  -0.3999  -0.3966
 -0.3937  -0.3888  -0.3870  -0.3851  -0.3840  -0.3809  -0.3784  -0.3773
 -0.3717  -0.3700  -0.3674  -0.3654  -0.3625  -0.3603  -0.3524  -0.3491
 -0.3477  -0.3444  -0.3403  -0.3346  -0.3326  -0.3225  -0.3078  -0.3060
 -0.2768  -0.2727  -0.2721  -0.2690  -0.2655  -0.2628  -0.2601  -0.2599
 -0.2422  -0.2067  -0.1868
 -- Virtual --
 -0.0696  -0.0351  -0.0098  -0.0058   0.0014   0.0097   0.0134   0.0228
  0.0408   0.0437   0.0551   0.0613   0.0807   0.0895   0.0943   0.1018
  0.1034   0.1079   0.1090   0.1113   0.1178   0.1181   0.1225   0.1261
  0.1317   0.1358   0.1426   0.1445   0.1536   0.1547   0.1570   0.1582
  0.1605   0.1653   0.1675   0.1688   0.1709   0.1753   0.1766   0.1857
  0.1871   0.1890   0.1903   0.1945   0.1973   0.1981   0.2010   0.2014
  0.2026   0.2056   0.2082   0.2104   0.2181   0.2217   0.2350   0.2404
  0.2418   0.2446   0.2539   0.2592   0.2607   0.2656   0.2712   0.2736
  0.2771   0.2789   0.2793   0.2845   0.2958   0.2997   0.3034   0.3047
  0.3101   0.3169   0.3175   0.3201   0.3225   0.3379   0.3442   0.3472
  0.3512   0.3605   0.3654   0.3755   0.3768   0.3781   0.3827   0.3989
  0.3993   0.4045   0.4170   0.4288   0.4336   0.4489   0.4607   0.4647
  0.4655   0.4674   0.4755   0.4843   0.4862   0.5080   0.5208   0.5263
  0.5269   0.5295   0.5386   0.5402   0.5438   0.5465   0.5482   0.5516
  0.5530   0.5561   0.5594   0.5630   0.5662   0.5674   0.5744   0.5758
  0.5795   0.5811   0.5829   0.5875   0.5930   0.5957   0.5977   0.5993
  0.6027   0.6082   0.6097   0.6135   0.6139   0.6154   0.6206   0.6229
  0.6236   0.6240   0.6247   0.6265   0.6277   0.6295   0.6316   0.6340
  0.6347   0.6352   0.6380   0.6397   0.6410   0.6501   0.6535   0.6573
  0.6616   0.6622   0.6643   0.6684   0.6740   0.6816   0.6839   0.6899
  0.6911   0.7003   0.7027   0.7038   0.7119   0.7156   0.7193   0.7196
  0.7279   0.7370   0.7434   0.7467   0.7509   0.7639   0.7653   0.7884
  0.7986   0.8042   0.8060   0.8122   0.8166   0.8214   0.8276   0.8330
  0.8348   0.8420   0.8428   0.8432   0.8484   0.8547   0.8601   0.8633
  0.8645   0.8665   0.8682   0.8688   0.8696   0.8706   0.8753   0.8814
  0.8834   0.8848   0.8871   0.8907   0.8918   0.8944   0.8984   0.8990
  0.9085   0.9093   0.9145   0.9240   0.9248   0.9261   0.9280   0.9344
  0.9377   0.9385   0.9411   0.9436   0.9482   0.9518   0.9563   0.9566
  0.9634   0.9696   0.9720   0.9736   0.9756   0.9810   0.9891   0.9931
  0.9977   1.0071   1.0079   1.0183   1.0194   1.0258   1.0272   1.0290
  1.0309   1.0374   1.0399   1.0416   1.0564   1.0600   1.0697   1.0773
  1.0813   1.0875   1.0881   1.0967   1.1034   1.1100   1.1187   1.1213
  1.1284   1.1298   1.1372   1.1485   1.1580   1.1762   1.1778   1.1824
  1.1841   1.1872   1.1907   1.2008   1.2098   1.2179   1.2217   1.2230
  1.2302   1.2335   1.2414   1.2515   1.2564   1.2624   1.2715   1.2861
  1.2887   1.3030   1.3092   1.3144   1.3239   1.3256   1.3298   1.3316
  1.3428   1.3547   1.3612   1.3646   1.3694   1.3835   1.3928   1.4102
  1.4124   1.4149   1.4214   1.4293   1.4305   1.4310   1.4417   1.4479
  1.4530   1.4546   1.4580   1.4615   1.4844   1.4863   1.4902   1.4964
  1.5044   1.5075   1.5156   1.5194   1.5218   1.5238   1.5291   1.5345
  1.5410   1.5446   1.5573   1.5675   1.5817   1.5879   1.6072   1.6205
  1.6462   1.6595   1.6621   1.6662   1.6763   1.6769   1.6969   1.7135
  1.7208   1.7284   1.7380   1.7541   1.7563   1.7708   1.7800   1.7919
  1.8010   1.8020   1.8100   1.8127   1.8223   1.8323   1.8458   1.8481
  1.8516   1.8535   1.8622   1.8660   1.8861   1.8934   1.8983   1.8995
  1.9104   1.9180   1.9259   1.9278   1.9309   1.9361   1.9413   1.9444
  1.9576   1.9689   1.9694   1.9750   1.9817   1.9874   1.9964   1.9985
  2.0088   2.0111   2.0124   2.0153   2.0308   2.0428   2.0506   2.0659
  2.0780   2.0828   2.0849   2.0908   2.0943   2.0976   2.1026   2.1062
  2.1299   2.1347   2.1456   2.1469   2.1516   2.1552   2.1600   2.1618
  2.1673   2.1720   2.1750   2.1780   2.1805   2.1837   2.1883   2.2039
  2.2076   2.2139   2.2228   2.2247   2.2347   2.2519   2.2569   2.2604
  2.2616   2.2651   2.2736   2.2760   2.2836   2.2858   2.2976   2.3042
  2.3097   2.3132   2.3180   2.3250   2.3317   2.3321   2.3368   2.3407
  2.3515   2.3668   2.3761   2.3856   2.3919   2.4067   2.4119   2.4163
  2.4198   2.4305   2.4385   2.4440   2.4660   2.4723   2.4903   2.5009
  2.5035   2.5064   2.5261   2.5410   2.5560   2.5655   2.5731   2.5751
  2.5795   2.6010   2.6026   2.6099   2.6103   2.6232   2.6609   2.6758
  2.6840   2.6867   2.6985   2.7054   2.7093   2.7219   2.7317   2.7440
  2.7534   2.7620   2.7756   2.7838   2.7953   2.7988   2.8004   2.8037
  2.8065   2.8247   2.8348   2.8551   2.8609   2.8641   2.9008   2.9097
  2.9238   2.9401   2.9508   2.9603   2.9732   2.9949   3.0035   3.0145
  3.0295   3.0362   3.0696   3.1251   3.1525   3.1609   3.1801   3.2281
  3.2520   3.3058   3.4644   3.4765   3.4936   3.7381   4.0048   4.0108
  4.1216   4.1291   4.1325   4.1379   4.1391   4.1497   4.1520   4.1539
  4.1656   4.1700   4.1856   4.1907   4.2072   4.2158   4.2170   4.2211
  4.2529   4.2615   4.2769   4.3049   4.3193   4.3433   4.3621   4.3639
  4.3746   4.4102   4.4159   4.4304   4.4480   4.4860   4.5137   4.5783
  4.5979   4.6084   4.6808   4.7493   4.7654   4.8102   4.8708
 --------------------------------------------------------------

          Ground-State Mulliken Net Atomic Charges

     Atom                 Charge (a.u.)
  ----------------------------------------
      1 C                    -0.547812
      2 C                     0.267206
      3 C                    -0.556387
      4 O                    -0.502421
      5 B                     0.627171
      6 O                    -0.500343
      7 C                     0.275393
      8 C                    -0.562651
      9 C                    -0.544597
     10 C                    -0.347790
     11 C                    -0.167940
     12 C                    -0.148770
     13 C                    -0.222146
     14 S                     0.316195
     15 C                    -0.157314
     16 C                    -0.141226
     17 C                    -0.222077
     18 S                     0.305633
     19 C                    -0.160861
     20 C                    -0.149194
     21 C                    -0.211009
     22 C                    -0.167541
     23 C                    -0.185637
     24 C                     0.144797
     25 C                    -0.224368
     26 C                    -0.192004
     27 C                    -0.243484
     28 C                    -0.191785
     29 C                     0.263841
     30 N                    -0.677661
     31 C                     0.260725
     32 C                    -0.184883
     33 C                    -0.184751
     34 C                    -0.165686
     35 C                    -0.178697
     36 C                    -0.192711
     37 C                     0.263341
     38 C                    -0.189227
     39 C                    -0.182544
     40 C                    -0.166622
     41 C                    -0.177312
     42 C                    -0.193545
     43 H                     0.184209
     44 H                     0.184554
     45 H                     0.172626
     46 H                     0.192127
     47 H                     0.181741
     48 H                     0.174236
     49 H                     0.170719
     50 H                     0.187826
     51 H                     0.193473
     52 H                     0.189635
     53 H                     0.169856
     54 H                     0.185250
     55 H                     0.187194
     56 H                     0.175221
     57 H                     0.194995
     58 H                     0.197304
     59 H                     0.176907
     60 H                     0.174287
     61 H                     0.181307
     62 H                     0.169662
     63 H                     0.169998
     64 H                     0.188493
     65 H                     0.168798
     66 H                     0.188956
     67 H                     0.185133
     68 H                     0.169417
     69 H                     0.169953
     70 H                     0.173192
     71 H                     0.180587
     72 H                     0.184110
     73 H                     0.170944
     74 H                     0.168517
     75 H                     0.172718
     76 H                     0.182748
  ----------------------------------------
  Sum of atomic charges =     0.000000

 -----------------------------------------------------------------
                    Cartesian Multipole Moments
 -----------------------------------------------------------------
    Charge (ESU x 10^10)
                -0.0000
    Dipole Moment (Debye)
         X      -1.1412      Y       0.3115      Z       0.1802
       Tot       1.1966
    Quadrupole Moments (Debye-Ang)
        XX    -206.9734     XY       6.5663     YY    -243.0957
        XZ       0.9421     YZ      -5.2689     ZZ    -256.8599
    Octopole Moments (Debye-Ang^2)
       XXX     354.2511    XXY      39.4122    XYY     -49.9393
       YYY      13.1590    XXZ      -1.0718    XYZ     -15.5647
       YYZ       0.2306    XZZ      -7.5461    YZZ       0.7285
       ZZZ      -4.0927
    Hexadecapole Moments (Debye-Ang^3)
      XXXX  -93241.4968   XXXY     923.6776   XXYY  -17134.2971
      XYYY    -150.3938   YYYY   -3901.7155   XXXZ     356.5814
      XXYZ     105.4074   XYYZ      11.1684   YYYZ      66.1005
      XXZZ  -17957.5772   XYZZ      28.7536   YYZZ    -865.5328
      XZZZ       1.5813   YZZZ      11.8325   ZZZZ   -1502.0300
 -----------------------------------------------------------------
 Calculating analytic gradient of the SCF energy
 Gradient of SCF Energy
            1           2           3           4           5           6
    1   0.0179998  -0.0243132  -0.0092573   0.0540067  -0.0368006   0.0483925
    2   0.0079143   0.0110719  -0.0133068   0.0031631  -0.0186033   0.0065286
    3   0.0208078  -0.0100520   0.0081422  -0.0066007  -0.0109155   0.0286823
            7           8           9          10          11          12
    1  -0.0383549   0.0100450   0.0122804   0.0015757  -0.0598384   0.0521394
    2  -0.0033527  -0.0095814  -0.0012301   0.0074065  -0.0133061  -0.0241201
    3  -0.0046325  -0.0115745  -0.0057834   0.0045194   0.0154751   0.0150953
           13          14          15          16          17          18
    1   0.0041529   0.0025682  -0.0402560   0.0466815  -0.0050549  -0.0025594
    2  -0.0073816   0.0266753  -0.0045814   0.0008175   0.0050420  -0.0293595
    3   0.0056535  -0.0226092   0.0048680  -0.0019115  -0.0036903   0.0223192
           19          20          21          22          23          24
    1  -0.0497457   0.0564712  -0.0029932  -0.0445196   0.0304410  -0.0107276
    2   0.0239022   0.0155591   0.0006699   0.0008476   0.0087955   0.0043635
    3  -0.0167466  -0.0132202  -0.0004169   0.0004104  -0.0073131  -0.0033072
           25          26          27          28          29          30
    1   0.0142750  -0.0233667   0.0109850  -0.0133872   0.0172527  -0.0019080
    2  -0.0079412  -0.0102503   0.0054416   0.0148732  -0.0036222   0.0018761
    3   0.0039984   0.0065752  -0.0024180  -0.0096466   0.0016179   0.0001539
           31          32          33          34          35          36
    1   0.0043774  -0.0028446   0.0122463  -0.0040855  -0.0003958  -0.0127869
    2   0.0037464   0.0077318  -0.0055202  -0.0021540  -0.0010815   0.0026215
    3   0.0068074  -0.0007831   0.0107079  -0.0065685   0.0013046  -0.0143014
           37          38          39          40          41          42
    1  -0.0023005  -0.0069895   0.0047818  -0.0043622   0.0036824   0.0122370
    2  -0.0083155   0.0058690   0.0068151   0.0024754   0.0037829  -0.0042665
    3  -0.0028188   0.0076400   0.0002423   0.0044443   0.0024885  -0.0095204
           43          44          45          46          47          48
    1  -0.0116910  -0.0038746   0.0004236  -0.0013649  -0.0002373   0.0070069
    2  -0.0032384  -0.0003545   0.0027465   0.0062220   0.0077844  -0.0082414
    3   0.0006505  -0.0097787  -0.0034022  -0.0066055   0.0045424   0.0017306
           49          50          51          52          53          54
    1   0.0085329   0.0009154  -0.0117171  -0.0070111   0.0024381  -0.0028906
    2  -0.0002334  -0.0016783  -0.0019978  -0.0048141   0.0102945   0.0004971
    3   0.0046909  -0.0074972   0.0065163   0.0017618  -0.0023141  -0.0014486
           55          56          57          58          59          60
    1   0.0089954  -0.0062702  -0.0000586  -0.0058970   0.0066615  -0.0098858
    2   0.0068462   0.0066071  -0.0062962   0.0110325  -0.0068132  -0.0051288
    3  -0.0047211  -0.0052752   0.0047486  -0.0082041   0.0049412   0.0041111
           61          62          63          64          65          66
    1   0.0008663   0.0023306  -0.0034431   0.0044230   0.0004097   0.0021348
    2  -0.0093423   0.0004549  -0.0043159   0.0015713   0.0032750  -0.0027764
    3   0.0070619  -0.0004807   0.0038192  -0.0011684  -0.0028061   0.0018967
           67          68          69          70          71          72
    1   0.0013589   0.0004087   0.0023620   0.0002212   0.0002014  -0.0026051
    2  -0.0007831   0.0004254  -0.0020683  -0.0006383   0.0019649  -0.0011366
    3   0.0014885   0.0012223   0.0019957  -0.0004470   0.0008748   0.0009640
           73          74          75          76
    1  -0.0050701   0.0017696   0.0007464   0.0000659
    2  -0.0006932   0.0002648  -0.0037784  -0.0056737
    3   0.0028392  -0.0008919  -0.0035185  -0.0044197
 Max gradient component =       5.984E-02
 RMS gradient           =       1.359E-02
 Gradient time:  CPU 583.30 s  wall 83.20 s
 Geometry Optimization Parameters
   NAtoms,    NIC,     NZ,  NCons,   NDum,   NFix, NCnnct, MaxDiis
       76     568       0       0       0       0       0       0

 Cartesian Hessian Update
 Hessian updated using BFGS update


** GEOMETRY OPTIMIZATION IN DELOCALIZED INTERNAL COORDINATES **
   Searching for a Minimum

   Optimization Cycle:   2

                       Coordinates (Angstroms)
     ATOM                X               Y               Z
      1  C        12.1083761841   -1.3651731789   -1.0216574652
      2  C        11.7123067816    0.0587946882   -0.6421596373
      3  C        12.8030604678    1.0047636144   -1.0949326230
      4  O        10.4726901083    0.3128504558   -1.2351700013
      5  B         9.4759395265   -0.0928954385   -0.2889456351
      6  O        10.1289127209   -0.4474861231    0.9367174176
      7  C        11.3736201955    0.1730208759    0.8525408629
      8  C        11.2112875370    1.6306451977    1.2583369038
      9  C        12.4216160603   -0.4956458677    1.7417317724
     10  C         7.9637545599    0.2298990090   -0.4885949017
     11  C         7.4437857991    1.2565167084   -1.2504674460
     12  C         6.0900673357    1.3501073096   -1.2771893922
     13  C         5.4110891860    0.4023762147   -0.5396753601
     14  S         6.6119559575   -0.5920167127    0.1751876794
     15  C         3.9566067602    0.2813857867   -0.4047095208
     16  C         3.3793299299   -0.6629934296    0.3266921790
     17  C         1.9258225712   -0.7852254111    0.4587543154
     18  S         0.7324965371    0.2168397155   -0.2676067102
     19  C         1.2313033093   -1.7250145077    1.1879575976
     20  C        -0.1223068725   -1.6279156829    1.1486385017
     21  C        -0.6335711215   -0.5999378919    0.3838531509
     22  C        -2.0278431673   -0.2250051321    0.1332005151
     23  C        -3.0270384891   -0.9052587072    0.6679286130
     24  C        -4.4460516628   -0.6095436076    0.4716559817
     25  C        -4.9050075745    0.4407816790   -0.3129141245
     26  C        -6.2665530736    0.6870676273   -0.4774609095
     27  C        -5.4098614344   -1.4010216841    1.0854778867
     28  C        -6.7748849359   -1.1655292714    0.9310490307
     29  C        -7.2092128586   -0.1143920000    0.1430204716
     30  N        -8.5855431133    0.1411244480   -0.0318168333
     31  C        -9.0739129112    1.4652518658    0.0497709013
     32  C        -9.9892602334    1.9448528386   -0.8919734782
     33  C       -10.4552411988    3.2406907787   -0.7957750156
     34  C       -10.0467604719    4.0998005967    0.2086744363
     35  C        -9.1379480149    3.6306243355    1.1462699994
     36  C        -8.6681245248    2.3311516465    1.0565895314
     37  C        -9.4600651902   -0.9415017020   -0.2899233707
     38  C        -9.1436979000   -1.9375783805   -1.2025725471
     39  C       -10.0259395041   -2.9815678254   -1.4269494053
     40  C       -11.2408643619   -3.0578737999   -0.7525408808
     41  C       -11.5587670708   -2.0650095843    0.1571766474
     42  C       -10.6709070152   -1.0260401419    0.3775522144
     43  H        11.3747067586   -2.0795240308   -0.5909493568
     44  H        11.9877700886   -1.4462648916   -2.1257788538
     45  H        13.1394315727   -1.6187934916   -0.7781257162
     46  H        12.6744951553    1.2866506821   -2.1585751820
     47  H        12.8279848256    1.9552871564   -0.5289965597
     48  H        13.7827744673    0.4981021191   -0.9783596137
     49  H        12.1373425502    2.0412152746    1.7024678721
     50  H        10.9173561890    2.2276187729    0.3806386085
     51  H        10.3883156787    1.6823880393    2.0087777331
     52  H        11.9491787665   -0.7130532806    2.7156228901
     53  H        13.2660075943    0.2065408290    1.8537912013
     54  H        12.7492680786   -1.4498945517    1.3284904544
     55  H         8.1226710502    1.9409674304   -1.7902700741
     56  H         5.5417478291    2.1216226788   -1.8433386005
     57  H         3.3499022518    1.0003057596   -0.9316732396
     58  H         3.9655532517   -1.3823961613    0.8543833761
     59  H         1.7717060794   -2.4989959798    1.7592192370
     60  H        -0.8014818941   -2.3130169942    1.6835570483
     61  H        -2.2022630059    0.6191500471   -0.5012832196
     62  H        -2.7992043508   -1.7566117376    1.3052374149
     63  H        -4.2043431760    1.0872229785   -0.8140812765
     64  H        -6.5542859651    1.5251105753   -1.1069990874
     65  H        -5.0811770850   -2.2269937136    1.7034484496
     66  H        -7.4739968336   -1.8249122919    1.4402034030
     67  H       -10.3181145240    1.2826765440   -1.6859023696
     68  H       -11.1664126367    3.5985058562   -1.5355689957
     69  H       -10.4157975261    5.1148784969    0.2773418782
     70  H        -8.7875992088    4.2659802521    1.9538627457
     71  H        -7.9570368626    1.9862130829    1.8043639815
     72  H        -8.2054802536   -1.9020114087   -1.7419247149
     73  H        -9.7985746533   -3.7698842522   -2.1350782918
     74  H       -11.9115565905   -3.8870039005   -0.9499630823
     75  H       -12.5049725466   -2.1261450891    0.6821011666
     76  H       -10.9340883566   -0.2618535641    1.0902630630
   Point Group: c1    Number of degrees of freedom:   222


   Energy is  -2416.581307282

 Hessian updated using BFGS update

178 Hessian modes will be used to form the next step
  Hessian Eigenvalues:
     0.006600    0.007313    0.008059    0.009135    0.009293    0.011747
     0.011880    0.012683    0.013085    0.013272    0.013349    0.013696
     0.014457    0.014502    0.015168    0.016191    0.016729    0.017313
     0.018052    0.018845    0.018854    0.019439    0.020686    0.021594
     0.021622    0.022232    0.023469    0.023651    0.023805    0.023823
     0.024140    0.024221    0.024349    0.024422    0.024645    0.024678
     0.024707    0.024841    0.024951    0.024997    0.025006    0.025097
     0.025100    0.025114    0.025318    0.025340    0.025381    0.025425
     0.025528    0.025545    0.025677    0.025713    0.025892    0.027674
     0.027790    0.028242    0.028388    0.029433    0.029477    0.034971
     0.035894    0.048015    0.050373    0.054093    0.057178    0.059252
     0.060193    0.060265    0.060348    0.061080    0.063901    0.064729
     0.064842    0.074593    0.108911    0.122020    0.147098    0.158118
     0.162980    0.172477    0.207665    0.216295    0.220389    0.226048
     0.226097    0.229722    0.234536    0.234779    0.238906    0.240002
     0.245422    0.248079    0.249930    0.250000    0.250000    0.250000
     0.251249    0.261992    0.286723    0.304115    0.306740    0.310222
     0.311562    0.313284    0.315183    0.317034    0.318847    0.319521
     0.319855    0.321041    0.322454    0.322989    0.323154    0.324182
     0.326220    0.328883    0.329239    0.334327    0.337820    0.338927
     0.342372    0.343696    0.345715    0.346914    0.348632    0.349367
     0.349634    0.350614    0.350856    0.351111    0.353173    0.353777
     0.353934    0.355497    0.355841    0.358196    0.358641    0.360359
     0.360507    0.361393    0.361978    0.369316    0.370507    0.371753
     0.373648    0.385950    0.394570    0.421235    0.427685    0.428702
     0.437354    0.438042    0.442352    0.443202    0.448648    0.455847
     0.459160    0.464392    0.477576    0.480253    0.481046    0.484766
     0.486192    0.489136    0.489284    0.490345    0.495308    0.498004
     0.498926    0.500561    0.501234    0.503142    0.503955    0.526397
     0.552835    0.563652    0.660890    0.684141

 Minimum search - taking simple RFO step
 Searching for Lamda that Minimizes Along All modes
 Value Taken    Lamda =  -0.05842687
 Calculated Step too Large.  Step scaled by  0.628519
 Step Taken.  Stepsize is  0.300000

                             Maximum     Tolerance    Cnvgd?
         Gradient           0.036364      0.000300      NO
         Displacement       0.057782      0.001200      NO
         Energy change     -0.055031      0.000001      NO


 New Cartesian Coordinates Obtained by Inverse Iteration

 Displacement from previous Coordinates is:  1.909811
 ----------------------------------------------------------------
             Standard Nuclear Orientation (Angstroms)
    I     Atom           X                Y                Z
 ----------------------------------------------------------------
    1      C      11.9629341118    -1.3557201011    -1.1451266600
    2      C      11.6357321079     0.0700722161    -0.6957229112
    3      C      12.7372884061     1.0068770815    -1.1595928254
    4      O      10.3706172734     0.3940353033    -1.2441261371
    5      B       9.4180375613    -0.0045000670    -0.2992946743
    6      O      10.0435324618    -0.4260759839     0.8842866811
    7      C      11.3371924807     0.1379367511     0.8183221818
    8      C      11.2473548317     1.5906185422     1.2958260402
    9      C      12.3456958709    -0.6270066872     1.6716281762
   10      C       7.9196789534     0.3216593926    -0.4823950374
   11      C       7.4107923536     1.3621008602    -1.2363953225
   12      C       6.0323370689     1.4558758027    -1.2393927873
   13      C       5.3906423443     0.4850478287    -0.4909758727
   14      S       6.5931124892    -0.5285362324     0.2113014774
   15      C       3.9579773711     0.3391844656    -0.3257607545
   16      C       3.3734557793    -0.6178044102     0.4106052843
   17      C       1.9430895673    -0.7726460308     0.5697621042
   18      S       0.7405520269     0.2322973999    -0.1530628107
   19      C       1.2936099682    -1.7404641533     1.3136661481
   20      C      -0.0844343203    -1.6654597082     1.2903159579
   21      C      -0.5932200574    -0.6317123815     0.5244901182
   22      C      -1.9715757592    -0.2551150276     0.2651194058
   23      C      -3.0139883202    -0.9197982030     0.7751916282
   24      C      -4.4216679475    -0.6106683667     0.5493319428
   25      C      -4.8628161834     0.4510738430    -0.2464612940
   26      C      -6.2152701428     0.6983109929    -0.4397172296
   27      C      -5.4033065751    -1.4078499029     1.1449730684
   28      C      -6.7595597179    -1.1681289960     0.9621214935
   29      C      -7.1791254317    -0.1093855849     0.1616655809
   30      N      -8.5513984014     0.1415152962    -0.0444050925
   31      C      -9.0453666090     1.4625674029     0.0068118449
   32      C      -9.9543992542     1.9180273744    -0.9560337982
   33      C     -10.4341644536     3.2160223246    -0.8953727601
   34      C     -10.0295295225     4.0922379166     0.1034802646
   35      C      -9.1246552385     3.6445862588     1.0604771752
   36      C      -8.6436149527     2.3432976520     1.0101730992
   37      C      -9.4211936733    -0.9407634893    -0.3084085601
   38      C      -9.0598290733    -1.9502045648    -1.1998569744
   39      C      -9.9256844796    -3.0061143099    -1.4447111402
   40      C     -11.1664014108    -3.0754450614    -0.8147111586
   41      C     -11.5296619511    -2.0689303322     0.0715240194
   42      C     -10.6615986980    -1.0155831458     0.3215954960
   43      H      11.2380824369    -2.0646845468    -0.7155456761
   44      H      11.8154094804    -1.3938955225    -2.2379719817
   45      H      12.9907418922    -1.6539131870    -0.9336318118
   46      H      12.5700166479     1.3112137642    -2.2035911733
   47      H      12.7986665242     1.9313492236    -0.5681760690
   48      H      13.7072006285     0.4924602101    -1.0992470953
   49      H      12.1910058039     1.9400802137     1.7355595190
   50      H      10.9657780450     2.2527835501     0.4671675370
   51      H      10.4551229287     1.6488511910     2.0598426959
   52      H      11.8820853803    -0.8485810984     2.6430493336
   53      H      13.2381229794    -0.0053483491     1.8124485704
   54      H      12.6159677853    -1.5841377816     1.2204873562
   55      H       8.0771920546     2.0403565380    -1.7741524892
   56      H       5.4709088517     2.2198709474    -1.7815268872
   57      H       3.3455837644     1.0657613588    -0.8470121432
   58      H       3.9754906684    -1.3442198708     0.9338496338
   59      H       1.8537943990    -2.4975569850     1.8671182046
   60      H      -0.7407233074    -2.3561091952     1.8229488238
   61      H      -2.1245986091     0.5996584537    -0.3768363260
   62      H      -2.8216622005    -1.7779458254     1.4160227536
   63      H      -4.1468172449     1.0993302550    -0.7349242960
   64      H      -6.5064051528     1.5327871843    -1.0713718496
   65      H      -5.0923318628    -2.2395225049     1.7698136724
   66      H      -7.4817149233    -1.8190508158     1.4473369721
   67      H     -10.2734531906     1.2399850669    -1.7415645026
   68      H     -11.1395292105     3.5548976430    -1.6500727571
   69      H     -10.4062761801     5.1082545943     0.1451226974
   70      H      -8.7885552131     4.3025015860     1.8567407102
   71      H      -7.9393330754     2.0073254317     1.7675087405
   72      H      -8.0984705272    -1.9086624695    -1.7006979507
   73      H      -9.6511787939    -3.7959736454    -2.1370184552
   74      H     -11.8303573893    -3.9088828589    -1.0218038362
   75      H     -12.4946910241    -2.1203261526     0.5657498035
   76      H     -10.9517576747    -0.2370878206     1.0158765296
 ----------------------------------------------------------------
 Molecular Point Group                 C1    NOp =  1
 Largest Abelian Subgroup              C1    NOp =  1
 Nuclear Repulsion Energy =        4272.78405713 hartrees
 There are      155 alpha and      155 beta electrons
 Applying Cartesian multipole field
    Component          Value
    ---------          -----
     (2,0,0)        1.00000E-12
     (0,2,0)        2.00000E-11
     (0,0,2)       -3.00000E-11
 Nucleus-field energy     =     0.0000001044 hartrees
 Requested basis set is 6-31G(d)
 There are 238 shells and 706 basis functions
 A cutoff of  1.0D-11 yielded   8969 shell pairs
 There are     84074 function pairs
 Smallest overlap matrix eigenvalue = 3.62E-04
 Guess MOs from SCF MO coefficient file

 -----------------------------------------------------------------------
  General SCF calculation program by
  Eric Jon Sundstrom, Paul Horn, Yuezhi Mao, Dmitri Zuev, Alec White,
  David Stuck, Shaama M.S., Shane Yost, Joonho Lee, David Small,
  Daniel Levine, Susi Lehtola, Hugh Burton, Evgeny Epifanovsky,
  Bang C. Huynh
 -----------------------------------------------------------------------
 Exchange:     0.2500 Hartree-Fock + 0.7500 PBE
 Correlation:  1.0000 PBE
 Using SG-1 standard quadrature grid
 using 12 threads for integral computing
 -------------------------------------------------------
 OpenMP Integral computing Module                
 Release: version 1.0, May 2013, Q-Chem Inc. Pittsburgh 
 -------------------------------------------------------
 A restricted SCF calculation will be
 performed using DIIS
 SCF converges when DIIS error is below 1.0e-08
 ---------------------------------------
  Cycle       Energy         DIIS error
 ---------------------------------------
    1   -2416.5900767519      4.09e-04  
    2   -2416.6086929764      7.82e-05  
    3   -2416.6088135755      7.80e-05  
    4   -2416.6091574548      2.14e-05  
    5   -2416.6091846598      7.55e-06  
    6   -2416.6091880941      3.20e-06  
    7   -2416.6091887601      1.03e-06  
    8   -2416.6091888266      3.20e-07  
    9   -2416.6091888330      1.02e-07  
   10   -2416.6091888336      4.97e-08  
   11   -2416.6091888337      1.29e-08  
   12   -2416.6091888338      5.47e-09  Convergence criterion met
 ---------------------------------------
 SCF time:   CPU 2198.12s  wall 259.00s 
 SCF   energy in the final basis set =    -2416.6091888338
 Total energy in the final basis set =    -2416.6091888338

 --------------------------------------------------------------

                    Orbital Energies (a.u.)
 --------------------------------------------------------------

 Alpha MOs
 -- Occupied --
-89.0638 -89.0612 -19.2307 -19.2282 -14.4333 -10.2917 -10.2914 -10.2808
[...]
     41  C       -11.3808628134   -2.2901119653   -0.0121437742
     42  C       -10.5899242891   -1.1728904547    0.2292929378
     43  H        10.9813928360   -1.6453195768   -1.6204968372
     44  H        11.8491343052   -0.5181984526   -2.6760564445
     45  H        12.7434139034   -1.4629477608   -1.4684762123
     46  H        12.9164220481    1.5010853399   -1.7818623570
     47  H        12.5743225365    2.0856204241   -0.1475890575
     48  H        13.6834692909    0.7163961418   -0.3906754596
     49  H        12.5478703415    0.9140531312    2.0199299672
     50  H        11.0479533435    1.7457856854    1.5505194917
     51  H        11.0022257586    0.4594720614    2.7673029215
     52  H        11.4941217776   -1.8721268639    2.1735586250
     53  H        12.9284284698   -1.5350141309    1.1886245887
     54  H        11.5450873195   -2.4049229334    0.4871623937
     55  H         7.9910255535    1.8596482318   -2.4511929946
     56  H         5.3595866072    1.9518056762   -2.4625034899
     57  H         3.3263116318    1.0990958251   -1.1411595598
     58  H         4.0409756149   -0.6092668402    1.3138704986
     59  H         2.0221100519   -1.5148109955    2.6084194164
     60  H        -0.5917330331   -1.4823763892    2.6098687492
     61  H        -2.0684849614    0.7650561240   -0.2869695314
     62  H        -2.7653881180   -1.4335276146    1.7320296015
     63  H        -4.1431557358    1.3720328757   -0.4848550545
     64  H        -6.5273816522    1.6268506769   -0.9601986750
     65  H        -4.9872482143   -2.1443207162    1.8380465204
     66  H        -7.3862520290   -1.8688457377    1.3803125575
     67  H       -10.3253291714    0.9470408573   -1.8281462447
     68  H       -11.3387841601    3.1993480226   -1.8519292276
     69  H       -10.6540077753    4.9016705108   -0.1723995401
     70  H        -8.9543645471    4.3071299177    1.5441638509
     71  H        -7.9691343521    2.0425262641    1.5885067943
     72  H        -7.8535899185   -2.0581831005   -1.5783763256
     73  H        -9.2540963821   -4.0558931010   -1.9779988413
     74  H       -11.5270213938   -4.2115931073   -0.9789021155
     75  H       -12.3711867036   -2.3467392256    0.4322102536
     76  H       -10.9562491955   -0.3645177968    0.8552517203

Z-matrix Print:
$molecule
0 1
S 
C  1 1.738325
C  2 1.383084 1 109.803748
H  3 1.085529 2 122.062834 1 -179.588781 0
C  3 1.406691 2 113.975216 1 0.022664 0
H  5 1.084623 3 123.643907 2 -178.726170 0
C  5 1.382027 3 113.426905 2 0.211359 0
C  2 1.435114 1 123.868684 3 179.608329 0
H  8 1.090293 2 114.192925 1 179.629134 0
C  8 1.352493 2 126.744334 1 -0.885002 0
H  10 1.090202 8 119.231555 2 0.256782 0
C  10 1.438890 8 126.290710 2 -179.241470 0
C  12 1.383869 10 126.040716 8 179.198528 0
H  13 1.085439 12 122.387499 10 0.391677 0
C  13 1.409502 12 113.186171 10 -179.353456 0
H  15 1.085230 13 124.196413 12 179.746859 0
C  15 1.378578 13 113.784538 12 -0.101386 0
C  7 1.442342 5 130.384130 3 179.430976 0
H  18 1.088819 7 116.019020 5 169.950522 0
C  18 1.351249 7 124.685623 5 -11.009410 0
H  20 1.089842 18 118.107611 7 -2.431225 0
C  20 1.453321 18 127.067093 7 178.969422 0
C  22 1.404389 20 119.053732 18 171.106921 0
H  23 1.087986 22 119.019343 20 0.778728 0
C  23 1.385132 22 121.960479 20 -179.721975 0
H  25 1.085940 23 120.113803 22 -179.445466 0
C  25 1.400625 23 120.354839 22 0.363549 0
C  27 1.404028 25 118.377822 23 -0.393218 0
H  28 1.085892 27 119.271838 25 -179.964626 0
C  28 1.383197 27 120.759518 25 -0.171456 0
H  30 1.086603 28 118.518842 27 -179.438872 0
N  27 1.407170 25 120.876210 23 179.690792 0
C  32 1.413352 27 120.168906 25 140.752203 0
C  33 1.400235 32 120.551346 27 139.885588 0
H  34 1.086047 33 119.428203 32 -0.374218 0
C  34 1.389848 33 120.210360 32 179.638285 0
H  36 1.086910 34 119.251266 33 179.965722 0
C  36 1.392934 34 120.638193 33 0.918705 0
H  38 1.086211 36 120.383704 34 179.474440 0
C  38 1.392640 36 119.219514 34 -0.540594 0
H  40 1.086900 38 120.123529 36 -179.463236 0
C  40 1.389627 38 120.590436 36 -0.437775 0
H  42 1.086032 40 120.354363 38 -178.957020 0
C  32 1.413834 27 119.933348 25 -38.310642 0
C  44 1.399905 32 120.568978 27 137.695739 0
H  45 1.086041 44 119.412604 32 -0.414173 0
C  45 1.389985 44 120.160027 32 179.639224 0
H  47 1.086922 45 119.295896 44 179.958788 0
C  47 1.392703 45 120.616344 44 0.824690 0
H  49 1.086264 47 120.342510 45 179.531782 0
C  49 1.392942 47 119.284557 45 -0.496388 0
H  51 1.086878 49 120.125109 47 -179.449309 0
C  51 1.389568 49 120.535865 47 -0.389863 0
H  53 1.086121 51 120.436428 49 -179.158747 0
B  17 1.538855 15 127.936953 13 179.143819 0
O  55 1.370659 17 123.590078 15 -175.639416 0
O  55 1.371764 17 122.909389 15 3.720829 0
C  56 1.444051 55 106.698433 17 -171.008003 0
C  57 1.445154 55 106.497627 17 -168.856905 0
C  59 1.518443 57 108.639885 55 -146.381590 0
H  60 1.092627 59 111.739603 57 55.813370 0
H  60 1.094640 59 109.495032 57 -63.742108 0
H  60 1.095894 59 110.823884 57 177.255900 0
C  58 1.519035 56 108.633049 55 -145.694587 0
H  64 1.092568 58 111.578435 56 55.034066 0
H  64 1.094602 58 109.635974 56 -64.547079 0
H  64 1.095735 58 110.797757 56 176.314674 0
C  59 1.525753 57 106.769256 55 94.783180 0
H  68 1.094247 59 108.806327 57 56.113402 0
H  68 1.095001 59 111.784456 57 175.724605 0
H  68 1.095034 59 111.230520 57 -62.753528 0
C  58 1.525865 56 106.942757 55 95.264798 0
H  72 1.094177 58 108.928440 56 56.320212 0
H  72 1.094692 58 111.139680 56 -62.595241 0
H  72 1.094959 58 111.593847 56 176.018472 0
S  17 1.732436 15 110.111181 13 -0.016906 0
$end


 --------------------------------------------------------------

                    Orbital Energies (a.u.)
 --------------------------------------------------------------

 Alpha MOs
 -- Occupied --
-89.0622 -89.0566 -19.2269 -19.2264 -14.4373 -10.2985 -10.2982 -10.2826
-10.2809 -10.2809 -10.2752 -10.2725 -10.2708 -10.2502 -10.2484 -10.2482
-10.2474 -10.2447 -10.2430 -10.2423 -10.2419 -10.2419 -10.2411 -10.2410
-10.2408 -10.2407 -10.2405 -10.2395 -10.2385 -10.2384 -10.2383 -10.2381
-10.2380 -10.2379 -10.2367 -10.2362 -10.2362 -10.2270 -10.2265 -10.2244
-10.2241  -8.0308  -8.0247  -6.8062  -5.9679  -5.9646  -5.9618  -5.9609
 -5.9583  -5.9551  -1.0913  -1.0202  -1.0015  -0.9138  -0.9024  -0.8886
 -0.8835  -0.8665  -0.8358  -0.8317  -0.8156  -0.7848  -0.7838  -0.7757
 -0.7701  -0.7697  -0.7678  -0.7579  -0.7527  -0.7487  -0.7307  -0.7292
 -0.7045  -0.7011  -0.6643  -0.6500  -0.6433  -0.6320  -0.6286  -0.6224
 -0.6189  -0.6065  -0.5874  -0.5812  -0.5726  -0.5576  -0.5558  -0.5523
 -0.5515  -0.5389  -0.5364  -0.5194  -0.5132  -0.5103  -0.4962  -0.4925
 -0.4842  -0.4828  -0.4805  -0.4678  -0.4639  -0.4634  -0.4563  -0.4543
 -0.4500  -0.4467  -0.4361  -0.4357  -0.4345  -0.4336  -0.4332  -0.4209
 -0.4171  -0.4148  -0.4117  -0.4099  -0.4093  -0.4001  -0.3976  -0.3947
 -0.3939  -0.3879  -0.3866  -0.3837  -0.3833  -0.3820  -0.3783  -0.3767
 -0.3755  -0.3684  -0.3673  -0.3643  -0.3603  -0.3566  -0.3524  -0.3497
 -0.3479  -0.3466  -0.3445  -0.3391  -0.3356  -0.3226  -0.3188  -0.3018
 -0.2803  -0.2727  -0.2714  -0.2703  -0.2623  -0.2598  -0.2596  -0.2556
 -0.2367  -0.2017  -0.1796
 -- Virtual --
 -0.0689  -0.0334  -0.0104  -0.0078   0.0040   0.0111   0.0117   0.0245
  0.0324   0.0495   0.0525   0.0711   0.0845   0.0915   0.1019   0.1047
  0.1069   0.1110   0.1132   0.1169   0.1205   0.1256   0.1308   0.1335
  0.1375   0.1410   0.1445   0.1485   0.1508   0.1530   0.1565   0.1577
  0.1616   0.1642   0.1684   0.1696   0.1703   0.1729   0.1742   0.1763
  0.1802   0.1877   0.1907   0.1932   0.1940   0.1981   0.2003   0.2008
  0.2022   0.2039   0.2095   0.2104   0.2180   0.2248   0.2267   0.2308
  0.2349   0.2383   0.2424   0.2537   0.2546   0.2617   0.2682   0.2690
  0.2714   0.2780   0.2817   0.2845   0.2941   0.2962   0.3008   0.3046
  0.3095   0.3127   0.3136   0.3142   0.3201   0.3332   0.3391   0.3467
  0.3512   0.3636   0.3690   0.3737   0.3790   0.3816   0.3842   0.3987
  0.4015   0.4101   0.4285   0.4338   0.4373   0.4453   0.4633   0.4658
  0.4697   0.4734   0.4753   0.4803   0.4829   0.5081   0.5132   0.5147
  0.5200   0.5254   0.5259   0.5364   0.5429   0.5458   0.5473   0.5550
  0.5581   0.5612   0.5632   0.5675   0.5684   0.5738   0.5751   0.5793
  0.5830   0.5841   0.5844   0.5880   0.5888   0.5945   0.5954   0.5973
  0.5998   0.6014   0.6035   0.6077   0.6091   0.6118   0.6146   0.6188
  0.6207   0.6214   0.6235   0.6250   0.6266   0.6282   0.6298   0.6322
  0.6328   0.6337   0.6357   0.6400   0.6442   0.6460   0.6532   0.6538
  0.6551   0.6584   0.6680   0.6727   0.6767   0.6775   0.6835   0.6843
  0.6872   0.6967   0.6976   0.7021   0.7067   0.7124   0.7183   0.7271
  0.7355   0.7375   0.7382   0.7446   0.7527   0.7613   0.7695   0.7855
  0.8056   0.8127   0.8154   0.8165   0.8201   0.8259   0.8285   0.8337
  0.8395   0.8441   0.8458   0.8480   0.8534   0.8579   0.8602   0.8617
  0.8653   0.8665   0.8669   0.8673   0.8705   0.8724   0.8819   0.8826
  0.8861   0.8869   0.8901   0.8956   0.8973   0.8998   0.9064   0.9080
  0.9095   0.9130   0.9165   0.9176   0.9221   0.9241   0.9266   0.9333
  0.9370   0.9401   0.9408   0.9419   0.9432   0.9473   0.9503   0.9572
  0.9623   0.9684   0.9710   0.9724   0.9765   0.9844   0.9873   0.9918
  0.9944   1.0034   1.0072   1.0130   1.0173   1.0238   1.0274   1.0302
  1.0310   1.0362   1.0373   1.0492   1.0529   1.0572   1.0636   1.0694
  1.0737   1.0754   1.0857   1.0927   1.1010   1.1055   1.1147   1.1217
  1.1273   1.1303   1.1343   1.1619   1.1708   1.1713   1.1789   1.1800
  1.1842   1.1944   1.1949   1.1988   1.2006   1.2053   1.2077   1.2175
  1.2370   1.2390   1.2483   1.2542   1.2598   1.2671   1.2770   1.2900
  1.2939   1.2967   1.3021   1.3069   1.3201   1.3237   1.3293   1.3315
  1.3405   1.3452   1.3599   1.3646   1.3659   1.3797   1.3932   1.4034
  1.4157   1.4176   1.4199   1.4257   1.4342   1.4357   1.4449   1.4491
  1.4531   1.4549   1.4583   1.4618   1.4783   1.4840   1.4851   1.4912
  1.4965   1.4993   1.5016   1.5156   1.5165   1.5195   1.5232   1.5266
  1.5296   1.5414   1.5715   1.5814   1.5893   1.5906   1.6152   1.6460
  1.6594   1.6641   1.6666   1.6814   1.6878   1.6953   1.6981   1.7202
  1.7281   1.7356   1.7472   1.7520   1.7709   1.7739   1.7904   1.7949
  1.8009   1.8099   1.8231   1.8305   1.8420   1.8427   1.8471   1.8486
  1.8518   1.8569   1.8611   1.8640   1.8874   1.8892   1.9016   1.9042
  1.9063   1.9120   1.9151   1.9207   1.9231   1.9241   1.9296   1.9367
  1.9427   1.9523   1.9566   1.9584   1.9605   1.9681   1.9792   1.9831
  1.9927   1.9986   2.0038   2.0040   2.0081   2.0280   2.0377   2.0618
  2.0683   2.0780   2.0831   2.0857   2.0876   2.0943   2.1004   2.1045
  2.1170   2.1252   2.1352   2.1390   2.1474   2.1553   2.1577   2.1581
  2.1609   2.1659   2.1700   2.1736   2.1743   2.1812   2.1864   2.1961
  2.2008   2.2134   2.2147   2.2178   2.2246   2.2370   2.2533   2.2578
  2.2608   2.2632   2.2776   2.2787   2.2820   2.2855   2.2875   2.2912
  2.3050   2.3117   2.3149   2.3207   2.3291   2.3332   2.3349   2.3384
  2.3406   2.3564   2.3688   2.3742   2.3823   2.3940   2.3976   2.4123
  2.4234   2.4300   2.4320   2.4416   2.4487   2.4557   2.4671   2.4873
  2.5036   2.5158   2.5208   2.5225   2.5402   2.5527   2.5620   2.5785
  2.5901   2.5918   2.6052   2.6093   2.6215   2.6354   2.6486   2.6528
  2.6623   2.6712   2.6751   2.6845   2.7107   2.7279   2.7467   2.7475
  2.7577   2.7593   2.7624   2.7685   2.7733   2.7749   2.7798   2.7918
  2.8004   2.8006   2.8252   2.8444   2.8479   2.8594   2.8872   2.9138
  2.9365   2.9459   2.9469   2.9600   2.9829   2.9873   3.0109   3.0237
  3.0368   3.0434   3.0658   3.1134   3.1391   3.1598   3.1754   3.2121
  3.2530   3.2888   3.4382   3.4572   3.4705   3.7201   4.0038   4.0066
  4.1195   4.1287   4.1316   4.1320   4.1347   4.1504   4.1553   4.1561
  4.1596   4.1658   4.1771   4.1906   4.2141   4.2165   4.2215   4.2531
  4.2656   4.2743   4.2790   4.3019   4.3142   4.3563   4.3638   4.3650
  4.4064   4.4261   4.4304   4.4481   4.4574   4.4957   4.5164   4.5660
  4.5963   4.6080   4.6624   4.7384   4.7591   4.8059   4.8690
 --------------------------------------------------------------

          Ground-State Mulliken Net Atomic Charges

     Atom                 Charge (a.u.)
  ----------------------------------------
      1 C                    -0.533997
      2 C                     0.231370
      3 C                    -0.534957
      4 O                    -0.476144
      5 B                     0.571262
      6 O                    -0.476084
      7 C                     0.233258
      8 C                    -0.534115
      9 C                    -0.534790
     10 C                    -0.325697
     11 C                    -0.159478
     12 C                    -0.162376
     13 C                    -0.207427
     14 S                     0.312140
     15 C                    -0.166838
     16 C                    -0.164191
     17 C                    -0.196007
     18 S                     0.304781
     19 C                    -0.169495
     20 C                    -0.151528
     21 C                    -0.189941
     22 C                    -0.182095
     23 C                    -0.194629
     24 C                     0.133304
     25 C                    -0.217217
     26 C                    -0.195886
     27 C                    -0.235314
     28 C                    -0.196445
     29 C                     0.264186
     30 N                    -0.671815
     31 C                     0.255158
     32 C                    -0.191005
     33 C                    -0.181452
     34 C                    -0.168511
     35 C                    -0.181238
     36 C                    -0.192403
     37 C                     0.250940
     38 C                    -0.189239
     39 C                    -0.181817
     40 C                    -0.168077
     41 C                    -0.181923
     42 C                    -0.189730
     43 H                     0.188461
     44 H                     0.188609
     45 H                     0.172781
     46 H                     0.187082
     47 H                     0.188414
     48 H                     0.170903
     49 H                     0.172605
     50 H                     0.187891
     51 H                     0.190151
     52 H                     0.188083
     53 H                     0.170487
     54 H                     0.188742
     55 H                     0.188717
     56 H                     0.177276
     57 H                     0.185059
     58 H                     0.189755
     59 H                     0.181563
     60 H                     0.179520
     61 H                     0.174700
     62 H                     0.164647
     63 H                     0.172763
     64 H                     0.190902
     65 H                     0.171027
     66 H                     0.190328
     67 H                     0.188104
     68 H                     0.172734
     69 H                     0.169364
     70 H                     0.173273
     71 H                     0.188743
     72 H                     0.188665
     73 H                     0.173513
     74 H                     0.169488
     75 H                     0.172891
     76 H                     0.188222
  ----------------------------------------
  Sum of atomic charges =     0.000000

 -----------------------------------------------------------------
                    Cartesian Multipole Moments
 -----------------------------------------------------------------
    Charge (ESU x 10^10)
                -0.0000
    Dipole Moment (Debye)
         X       0.0348      Y      -0.4463      Z       0.2703
       Tot       0.5229
    Quadrupole Moments (Debye-Ang)
        XX    -183.3255     XY      -2.8301     YY    -247.2336
        XZ       2.9692     YZ      -5.8152     ZZ    -250.4186
    Octopole Moments (Debye-Ang^2)
       XXX     597.0013    XXY     -68.3613    XYY     -69.5269
       YYY     -56.3297    XXZ      -5.7171    XYZ     -14.5201
       YYZ     -10.8825    XZZ      49.4203    YZZ     -25.6383
       ZZZ     -17.0355
    Hexadecapole Moments (Debye-Ang^3)
      XXXX  -86834.6770   XXXY    -699.9723   XXYY  -16845.3072
      XYYY    -462.8385   YYYY   -3774.8095   XXXZ     643.2607
      XXYZ      67.5317   XYYZ      32.7094   YYYZ     219.2134
      XXZZ  -17312.3708   XYZZ    -101.3279   YYZZ    -914.3288
      XZZZ     -80.3055   YZZZ      82.5859   ZZZZ   -1825.8380
 -----------------------------------------------------------------
Archival summary:
1\1\c34b03\OPT\ProcedureUnspecified\6-31G*\22136134\zl21a\FriFeb1212:29:292021FriFeb1212:29:292021\0\\#,OPT,ProcedureUnspecified,6-31G*,\\0,1\S\C,1,1.73833\C,2,1.38308,1,109.804\H,3,1.08553,2,122.063,1,-179.589,0\C,3,1.40669,2,113.975,1,0.0226638,0\H,5,1.08462,3,123.644,2,-178.726,0\C,5,1.38203,3,113.427,2,0.211359,0\C,2,1.43511,1,123.869,3,179.608,0\H,8,1.09029,2,114.193,1,179.629,0\C,8,1.35249,2,126.744,1,-0.885002,0\H,10,1.0902,8,119.232,2,0.256782,0\C,10,1.43889,8,126.291,2,-179.241,0\C,12,1.38387,10,126.041,8,179.199,0\H,13,1.08544,12,122.387,10,0.391677,0\C,13,1.4095,12,113.186,10,-179.353,0\H,15,1.08523,13,124.196,12,179.747,0\C,15,1.37858,13,113.785,12,-0.101386,0\C,7,1.44234,5,130.384,3,179.431,0\H,18,1.08882,7,116.019,5,169.951,0\C,18,1.35125,7,124.686,5,-11.0094,0\H,20,1.08984,18,118.108,7,-2.43123,0\C,20,1.45332,18,127.067,7,178.969,0\C,22,1.40439,20,119.054,18,171.107,0\H,23,1.08799,22,119.019,20,0.778728,0\C,23,1.38513,22,121.96,20,-179.722,0\H,25,1.08594,23,120.114,22,-179.445,0\C,25,1.40062,23,120.355,22,0.363549,0\C,27,1.40403,25,118.378,23,-0.393218,0\H,28,1.08589,27,119.272,25,-179.965,0\C,28,1.3832,27,120.76,25,-0.171456,0\H,30,1.0866,28,118.519,27,-179.439,0\N,27,1.40717,25,120.876,23,179.691,0\C,32,1.41335,27,120.169,25,140.752,0\C,33,1.40023,32,120.551,27,139.886,0\H,34,1.08605,33,119.428,32,-0.374218,0\C,34,1.38985,33,120.21,32,179.638,0\H,36,1.08691,34,119.251,33,179.966,0\C,36,1.39293,34,120.638,33,0.918705,0\H,38,1.08621,36,120.384,34,179.474,0\C,38,1.39264,36,119.22,34,-0.540594,0\H,40,1.0869,38,120.124,36,-179.463,0\C,40,1.38963,38,120.59,36,-0.437775,0\H,42,1.08603,40,120.354,38,-178.957,0\C,32,1.41383,27,119.933,25,-38.3106,0\C,44,1.39991,32,120.569,27,137.696,0\H,45,1.08604,44,119.413,32,-0.414173,0\C,45,1.38999,44,120.16,32,179.639,0\H,47,1.08692,45,119.296,44,179.959,0\C,47,1.3927,45,120.616,44,0.82469,0\H,49,1.08626,47,120.343,45,179.532,0\C,49,1.39294,47,119.285,45,-0.496388,0\H,51,1.08688,49,120.125,47,-179.449,0\C,51,1.38957,49,120.536,47,-0.389863,0\H,53,1.08612,51,120.436,49,-179.159,0\B,17,1.53885,15,127.937,13,179.144,0\O,55,1.37066,17,123.59,15,-175.639,0\O,55,1.37176,17,122.909,15,3.72083,0\C,56,1.44405,55,106.698,17,-171.008,0\C,57,1.44515,55,106.498,17,-168.857,0\C,59,1.51844,57,108.64,55,-146.382,0\H,60,1.09263,59,111.74,57,55.8134,0\H,60,1.09464,59,109.495,57,-63.7421,0\H,60,1.09589,59,110.824,57,177.256,0\C,58,1.51904,56,108.633,55,-145.695,0\H,64,1.09257,58,111.578,56,55.0341,0\H,64,1.0946,58,109.636,56,-64.5471,0\H,64,1.09574,58,110.798,56,176.315,0\C,59,1.52575,57,106.769,55,94.7832,0\H,68,1.09425,59,108.806,57,56.1134,0\H,68,1.095,59,111.784,57,175.725,0\H,68,1.09503,59,111.231,57,-62.7535,0\C,58,1.52587,56,106.943,55,95.2648,0\H,72,1.09418,58,108.928,56,56.3202,0\H,72,1.09469,58,111.14,56,-62.5952,0\H,72,1.09496,58,111.594,56,176.018,0\S,17,1.73244,15,110.111,13,-0.0169059,0\\\@

 Total job time:  7797.91s(wall), 60127.93s(cpu) 
 Fri Feb 12 12:29:29 2021

        *************************************************************
        *                                                           *
        *  Thank you very much for using Q-Chem.  Have a nice day.  *
        *                                                           *
        *************************************************************


